216
Lattice="11.704299689364166 0.0 0.0 0.0 11.704299689364166 0.0 0.0 0.0 11.704299689364166" Properties=species:S:1:pos:R:3:REF_forces:R:3 REF_energy=-109720.72860780044 REF_stress="-0.09475662036142901 -0.00020107651772867995 0.000713408467009974 -0.00020107651772867995 -0.09079201577899779 -0.0005288587863548842 0.000713408467009974 -0.0005288587863548842 -0.09162478473598369" free_REF_energy=-109720.72860780044 pbc="T T T"
Li       0.25796277       0.24871637      11.57988298      -1.84575485      -0.43119585       0.58406542
Li       3.64893247       5.87075968       9.80129760       0.16962622       0.58097573      -0.12331911
Li       6.02748025       3.94598760       9.65733472      -0.58535714      -0.77353901       0.43402355
Li       6.04983547       5.81972893       7.76357903      -1.00260168       0.14737692      -0.03772168
Li       3.98110050       7.78218886       0.22706341      -0.53490361       0.22908375      -0.98325104
Li       3.97829146       9.63334090       2.03046191      -0.30366605       0.28824895      -0.60278228
Li       5.77127313       7.64021571       1.98715600       0.66959882      -0.03485259       0.04085252
Li       3.90162830       4.11698742       7.92626879       0.24394678      -0.49286274      -0.50222618
Li       5.93372881       9.81897110      11.66825045       0.04157808      -0.41725122      -0.06775885
Li       3.93802867       9.67454004       5.87438801       0.16023038       0.53272718       0.36051006
Li       5.99892176       7.93902648       6.13258487      -0.07427891      -0.42371574      -1.19922602
Li       5.64896320       9.63533063       3.83503084       1.34203435       0.23229506       0.36103533
Li       3.89495685       7.84480687       7.72951951       0.31781483       0.11473291       0.76200093
Li       4.00029555       9.74546809       9.82693002      -0.41670975      -0.14037709      -0.21656608
Li       5.81820738       7.78125252       9.72873094      -0.23543463       0.11349338       0.02786793
Li       3.93088905       7.85908611       4.13887446      -0.09260317      -0.98413473      -1.05106003
Li       5.99470821       9.99067317       7.77469811      -0.32772104      -0.28892438       0.24074139
Li       5.76565507       3.81770847       5.78683985       0.09409955       0.18687163      -0.08800012
Li       3.79195901       3.82648670       3.93241061       0.33678109       0.15535171       0.00393662
Li       6.00594434      11.53388509       1.72135136      -1.22413872       0.44519988       0.71153480
Li       5.69917465       2.03947422      11.60223820       0.78075070      -0.04103352       0.30672515
Li       3.89893631       0.04927510       3.78411713       1.10408441      -0.06853198       0.87703337
Li       3.68861005       1.75388931       5.75137582       0.44293165       0.75206182       0.54113880
Li       5.95350908       0.09691160       5.68676809      -0.02517007      -0.47792488       0.69354994
Li       5.99260144       1.78701248       3.95722372      -0.32746393       0.70433211      -0.91283958
Li       3.99221958       5.75196104       5.92682328       0.04246048       0.11750738      -0.64920072
Li       3.84755444       0.07455639       7.80477816       0.54113983      -0.40482945      -0.63052011
Li       5.71954013      11.68908410       9.92033033       0.93697504       0.16215459      -1.27701218
Li       5.89135925       2.06370212       7.71477210       0.20043626      -1.05068748       0.24327058
Li       3.65092220       4.00567953       0.16503063       0.50308364      -0.36536070      -0.38888038
Li       4.10668763       5.75406781       1.91353596      -0.97373899      -0.12115295       0.56663103
Li       5.72738201       3.75696316       1.80175989      -0.06693919      -0.26565872       1.18292420
Li       5.57744993       5.79983163      11.42363058       0.94777830      -0.07413236       0.39179087
Li       3.86159960       1.74686673       9.65101439       0.43345663       1.10782690       0.04661770
Li       8.03827894      11.63711701       0.10709434      -0.64951002       0.63235151      -0.79111276
Li       7.63705555       1.88462634       1.83394672       0.36606416       0.16124031       0.62834650
Li       9.80001013      11.65127921       1.84565102       0.06850113       0.42326297       0.38672400
Li       9.71269605       3.95347835       9.90499770       0.09045475      -0.09383935      -0.73446056
Li       9.74991573       5.71579475       7.60065518       0.02090050       1.13907918       0.68656631
Li       7.82093010       7.50058341       0.14466514      -0.32134213       1.31478194      -0.52617858
Li       7.80665085       9.57926704       1.73317270       0.33393899       0.12336847       0.67162177
Li       9.88264249       7.85206353       2.06569185      -0.46522440      -0.40664079      -0.38787688
Li       9.94350484       9.66857084      11.56010272      -2.20974310       0.24435430       0.39018419
Li       7.89829552       5.71813561       9.73528535      -0.59904107       0.96250969       0.05389829
Li       7.96828723       7.95494433       3.99034689      -0.21279067      -0.61097099      -0.04601349
Li      10.01607150       7.68223414       5.85367140      -0.89215480       0.45637518      -0.07664227
Li       9.91202028       9.76700400       3.94668986      -0.81083029      -0.15318607       0.16798662
Li       7.71945382       7.77984800       7.73900000       0.36226664       0.74922460       0.35446642
Li       7.82303687       9.77859126       9.64200208      -0.72071698       0.13171890       0.32162341
Li       9.66143122       7.68621361       9.79532841      -0.38876597       0.35295050      -0.32584979
Li       9.62608424       9.63053187       7.88893208       0.19228278       0.58388801      -0.63273563
Li       7.70224850       9.77227094       5.62660799       0.90942156       0.11528261       0.95799304
Li       7.74613962       3.98355840       7.67333888       1.13177673      -0.40374676       0.17893721
Li       9.76185411       5.77572077       3.81653804       0.38936838      -0.03016881      -0.04110243
Li       9.66283574       4.00684996       5.84653178       0.04682699      -0.78208716      -0.41968194
Li       9.87433243       1.98305950      11.63302050      -0.68117290      -0.22058934       0.46740547
Li       7.85065902      11.44060182       3.72887284       0.11218057       1.53204761       0.38076778
Li       7.74438398       1.85548263       5.76062222       0.61349632       0.79901453       0.08266148
Li       9.79661588       0.07888698       5.75687685      -0.50650578      -0.33313398       0.19005826
Li       9.53537591       1.97065294       3.82168793       0.67908131      -0.21546462       0.21007790
Li       7.97928927       0.07607795       7.78698763      -0.52386201      -0.32937220      -0.01309926
Li       7.81343934       1.94244558       9.83559120      -0.13888122      -0.28624657      -0.36426773
Li       9.92618248      11.67749684       9.93027899      -1.26254946       0.14839405      -1.12860373
Li       9.83582529       1.95216015       7.72858317      -0.48402765       0.14049022       0.21502573
Li       7.80185209       4.00275345       0.13495058      -0.02045647      -0.23602239      -0.40917847
Li       7.90274315       5.74423620       1.97357901      -0.17762338       0.89342415      -0.17208676
Li       9.61449698       3.84790557       2.07915180       1.44485945      -0.13724986      -0.17422592
Li       9.90148641       5.86385414      11.66122787      -0.85378648       0.05645346       0.67405275
Li       7.64618490       4.06771231       3.73765106       0.58795370      -0.59903721       0.78148423
Li       7.88624009       5.78765915       5.84653178      -0.52134182       1.00408006      -0.38122004
Li       3.87704927       1.69279286       2.00178638       0.36475546       1.46731160       0.08217786
Li       3.83526492      11.62623201      11.66286647       0.25787342       0.74605212      -0.11153651
Li       5.91266107       5.77782754       3.79921568      -0.08307903       0.18034797       0.49475558
Li       1.56626938       9.81592798       0.40321312       1.20929189      -0.52867897      -1.49863613
Li       2.12503265       2.03924013       7.77001639      -0.73371597       0.20364577      -0.30737255
Li       0.10721139       7.85768160       3.76059149       0.02382333      -0.88316699       0.66776331
Li      11.62400819       1.84904526       5.66160385      -0.20482128       0.38621081       1.01033813
Li       1.84120338       0.11634074       5.63526917      -0.25140992      -0.26674115       1.13095680
Li       1.87058118       1.96128950       3.86195073       0.44003994       0.55782731      -0.04809120
Li      11.68885001       3.93358104       7.72355032      -0.05991879      -0.50908922       1.02938743
Li      11.60059959       4.02405528       0.12195880      -0.01747039      -0.07111106       0.03058790
Li       0.05337161       6.06949869       9.88322770      -0.10515940      -1.13349114      -0.43228086
Li       1.94045585       3.76386869       9.73540240      -0.69284134       0.96170005      -0.18740385
Li       0.01076796       0.14220724       7.82830380      -0.14103504      -0.03272911      -0.16261405
Li       1.94338192       5.85390549       7.65472904      -0.10467141      -0.02814715       0.71913833
Li       0.24052336       3.72571268       4.15678203      -1.04521566       0.47780790      -0.88031590
Li       1.93975359       7.96091352       1.79977016       0.51254762      -0.69025430       1.69438707
Li       0.02048252       9.75904508       2.01114982      -0.45530792       0.07036235       0.10493109
Li      11.52077627       2.07447008       9.90183754       0.33794554       0.25946056      -1.40448310
Li      11.61522997       8.03383131       0.00280903       0.19374188      -1.17636763      -0.16185531
Li       1.82083790       0.00351129       9.84425238       0.37281896      -0.29414294      -0.59032734
Li       2.01161799       7.77446403       5.94133661      -0.19164052      -0.35846063      -0.47616676
Li       1.99558310       9.77414363       3.99374114       0.01632342      -0.42769401      -0.37147478
Li      11.66579254       9.60852779       6.01519074      -0.39488082       0.41670383      -0.39109256
Li       1.92172897       2.11356244      11.58362836       0.28007258       0.28056958       0.72819889
Li       1.90791789       7.92732218       9.74722374       0.53235925      -0.21931381       1.09113299
Li       1.96620530       3.97431200       1.93530595      -0.29734268      -1.74372499       0.46124022
Li       0.04775354      11.50649702       3.72793649      -0.43389603       0.76148851       0.34169935
Li       1.81358124       5.88269807       0.18188482       0.37421250       0.52364038      -0.77502768
Li       0.01451333       9.76489723       9.69467143      -0.71917972      -0.03426741      -0.12510911
Li      11.68428534       1.91552569       1.96632235       0.06260970       0.30081341       0.24438644
Li       2.22697710       5.83272071       3.77405143      -1.37144108       0.09377147       0.68919217
Li       1.83254220       4.15467526       5.97867332       0.65121004      -1.64422664      -0.42416029
Li       1.86870849       9.64118278       7.80711902       0.37903280       0.38072947       0.06280691
Li       0.02598355       5.72890357       5.83342297      -0.27629332       0.46089081      -0.44086783
Li       0.01662011       7.64794055       7.80711902      -0.16505685       0.07819856       0.32787093
Li       0.31660131       5.85425662       2.02238594      -1.32388082      -0.29043438       0.34475382
Li       2.15616609      11.69505329       1.80000425      -0.80017667       0.14260778       0.57166165
F        9.78456045       0.01825871       7.95927492       0.57662465      -0.11663270      -0.73499612
F        9.72393218       3.77873315       0.09199580       0.63136858       0.87463659      -0.49729892
F        9.83207991      11.58093637       3.92679255       0.13973303       0.48095750      -0.89417543
F        2.07423599       5.59746428       2.02578019      -0.13051074       2.22893818      -0.76357547
F        1.82563667       1.92020741       9.80012717       0.90379315      -0.16555616      -0.25687789
F        9.73786030       5.78180700       1.91318483       0.65285503       0.39602753       0.09889903
F       11.65631206       0.07244962       9.79848857       0.75291722      -0.27965761      -0.26746801
F        0.01147021       2.05913744       7.97191556      -0.22509160      -0.36003697      -0.65014817
F        7.95517841       0.13495058       5.68840669      -0.78092219      -1.16503472       0.24968009
F        7.80466112       1.83804322       7.68527726       0.25110705       1.17403898       0.00444904
F        7.70494049       0.04143322       9.60489945       0.54014892      -0.27984684       1.24868016
F        7.81297117       1.87830601       3.84006369      -0.91483784       0.15015397      -0.59538933
F        1.71292426       4.12459521      11.66345168       0.80859523      -1.40973946       0.27037001
F        9.69209649       1.92699590       9.66342095       0.26648507       0.51529381       0.82401234
F        9.67980697       2.11133862       5.61443552       0.65406036      -0.73152899       1.70210655
F        7.92849261       3.98285614       1.95379875      -1.48328201      -0.93046604       0.01014197
F        0.09585821       7.81402456       9.68893633      -1.38661573       0.68706330       0.56802611
F        1.97954821       0.21044331       7.46523643      -0.19118723      -0.66726735       1.05210056
F        9.58465102       9.76454610       9.77917648       1.41583478      -0.33073745      -0.39091052
F        9.62725467       7.78394451       7.85932020       0.98067531      -0.24066965      -0.04995293
F        1.84050113      11.49397342      11.66649480       1.95317400       1.69138736       0.57556021
F        7.89068772       9.78046395       3.87049486      -0.31300944      -0.83470736      -0.64581663
F        7.82877198       7.87067337       5.91863027       0.28705364      -0.24081775      -0.37450097
F        9.75213954       9.75693831       5.84231823       0.64141362      -0.49832350       0.12466765
F        9.80820314       7.80992805       3.91368373       0.80538932       0.14453559       0.07180911
F        2.00295681       2.08324830       1.92371870      -0.43607864      -1.50501426      -0.66823948
F        0.14911278      11.63032852       1.77835129       0.08783840       0.50155075       1.00557413
F        0.06016010       2.04696497      11.65291781      -0.13945432      -0.02910206       0.59904544
F        7.94288890       9.86777803      11.65186443      -0.74016224      -0.49906372       0.45066322
F        7.97168148       7.76381311       1.99394450      -0.74129121       0.13746017      -0.27737652
F        7.83708203       5.85413958       0.02820736      -0.09960351      -1.26292922      -0.17998391
F        9.84472055       9.84671029       1.96327923      -0.30660919      -0.75377366      -0.04470454
F        2.20111060       0.09176171       3.91649276      -1.63100809      -0.61789060      -0.16362346
F        7.75058725       6.04679235       7.71266532       0.99490225      -1.37630535       0.30820148
F        7.81156666       3.96319292       9.76150298       0.29160758      -0.88133585       0.35909929
F        9.66704929       5.86982334       9.83371851       0.78713063      -0.03779727      -0.22206027
F        9.61871053       4.04875135       7.87535509       0.09146854      -1.15283329      -0.56939702
F        1.74792012       2.28573269       5.88773092       0.69804885      -1.77537502      -0.55414806
F       11.56220949      11.69610668       5.91125656       1.14416970       0.03333769      -0.27644758
F        0.04494451       1.77788312       3.94165701       0.26136035       0.04048202      -0.84435902
F        7.92100186       6.01870203       3.94446604      -0.69826328      -1.12982089      -0.49505589
F        7.75257699       4.04126060       5.80779055      -0.05586776      -0.78475725      -0.14192284
F        9.75717239       5.83342297       5.72761610       0.38312702       0.15970407       0.63937705
F        9.64176800       3.78329783       3.89694658       0.28925322       1.18279976       0.03859432
F        9.61730601       7.78534902      11.65291781       1.17448147       0.43794629       0.25088670
F       11.67656050       3.82262428       2.08757889       0.17198443       0.29768618      -0.60202689
F        1.95461805       3.90759749       3.86955852      -0.14485184      -0.10092865       0.36910063
F        7.98947201       1.95321353       0.09047424      -0.81854977       0.02492247      -0.62757903
F        5.83447635       3.81138815       3.71763671       0.28359268       0.24907022       0.78516657
F        7.58356690       7.76393016       9.83840023       1.27340877       0.14672772      -0.42307245
F        2.01665084       9.73411492       2.12526674      -0.39667879       0.47806809      -0.43905675
F        0.11165902       7.79354203       1.89820332      -0.48758915       0.42498124       0.45523438
F       11.54910068       9.82611072       0.11037155       1.17366308      -0.46692056      -0.41184959
F        3.80296106       5.86830178       0.13471649       0.05518076      -0.11632519      -0.61634716
F        3.85129981       3.63231237       2.09495260       0.23881872       1.03430621      -1.49764368
F        5.82862420       5.59711315       1.84483172       0.62961894       1.70485403       0.84229391
F        5.85250097       3.99608200       0.12956660      -0.02211869      -0.76716988      -1.79299401
F        4.04020721       2.04872062       7.64372700      -0.77958342      -0.19700975       0.67609677
F        3.85293841      11.69259539       9.56299806      -0.73330099      -0.05722221       1.48064226
F        5.76963453       1.96222584       9.79345572       0.29033720       0.49756863      -0.23969443
F        5.86806769       0.04915806       7.98057674      -0.39687780       0.15838484      -0.92523616
F        1.98235724       7.75643940       3.95628738       0.20294026       0.01327563      -0.31977941
F        1.76512544       9.61215612       5.73545798       1.14272680       0.70657463       1.03371691
F        0.19113121       7.60919931       5.98487660      -1.17616914       0.83322820      -0.18229096
F       11.70359743       9.65932445       3.89741475       0.66104039       0.48989440      -0.11928042
F        3.79453396       2.05831814       3.98800603       0.37752510      -1.65977230      -0.11923234
F        4.06841457      11.52697955       5.98276983      -0.76057500       0.70346205      -1.10248466
F        5.92448242       1.94876590       5.71041078      -0.52485060       0.05330668       0.66773940
F        5.80580082      11.69797937       3.84357497       0.00473263      -0.75606631      -0.01246574
F        3.96974733       2.13217227      11.56267766      -1.78967112      -0.93641685       0.31022622
F        3.94739211      11.62295481       2.05035922      -0.15246539      -0.23776688      -1.34349859
F        5.75699389       1.76910490       1.85911096       0.26594231       0.62124923       0.05307862
F        5.91020317       0.07455639      11.65315190      -0.56051592      -0.49645585       0.35559282
F        1.95929977       7.71208011       8.03675738       0.16766087       0.45133865      -1.87221844
F        1.69688937       9.82189717       9.99582306       1.13741644      -0.30325750      -1.02006898
F        5.84641474       5.78403082       5.94999779      -0.02846623       0.01561431      -0.76409509
F       11.66286647       6.10589906       0.04857284       0.03247509      -0.93306002       0.20549465
F        3.79500213       3.90490551       5.84009442       0.74413536       0.37423435       0.25651408
F        1.89995897       7.76205747       0.15964665       0.23620390       0.78969762      -1.05871935
F        7.65788920       0.01544968       1.91833472       1.61585632      -0.66947695      -0.03111163
F        9.83219695       1.86964483       2.07049062      -0.11581046      -0.31053501      -0.95819024
F        9.82575959       0.06729972      11.68007179       0.31408596       0.00183757       0.43313858
F        0.01884392       9.70005541       7.82490956      -0.05782617       0.11540088       0.22800260
F        3.82812530       9.71609030       7.92392793      -0.42980669       0.00772077      -0.65625634
F        3.85703492       7.90087046       9.88486630       0.01844227      -0.69982034      -0.02204027
F        5.83588087       9.73692395       9.88486630       0.14500508       0.26648147      -0.50428769
F        5.83670017       7.93481293       7.85616004      -0.12352968      -0.10229365       0.26580682
F        1.83921365       5.81516426       5.75090765       1.24727557       0.92695879       0.50518449
F       11.66883566       3.91087470       5.98206757      -0.56244681      -0.04073964      -0.98473123
F        0.03417656       5.81610060       3.88489115      -0.15361544       0.18617692      -0.08203542
F        3.90525663       9.59752575       3.81150519      -0.16121691       0.82597538       1.19165232
F        3.99081507       7.77680489       5.86291780      -0.42425953       0.35628239       0.29278257
F        5.94250704       9.83746389       5.89931817      -0.95262252      -0.24147904      -0.69714922
F        6.14112900       7.76896300       4.06080678      -1.82012224       0.12090356      -0.80116037
F        2.05328529       3.93147427       7.78195478      -0.28730947       0.45347549       0.62749598
F        3.83877621       9.94198329      11.68604098       0.45970605      -1.35685059       0.71454299
F        3.86967556       7.76814370       2.06264873       0.39769361      -0.28340345      -0.26940996
F        5.82089936       9.55012333       1.94139219       0.42937166       0.48787762      -0.41158862
F        5.80322587       7.65472904      11.65701432      -0.00880166       0.30350922       0.84638865
F        1.84799188       5.92986639       9.89715582       0.46648013       0.00866256      -0.44726371
F       11.64437367       4.07087247       9.63451133      -0.07394673      -0.61265197       1.17029417
F       11.69446808       5.71204938       7.76697327      -0.02387629       1.27926472      -0.01379911
F        3.95137158       6.03485396       7.68621361      -0.48050061      -0.97806924       0.92316410
F        3.71763671       4.07730984       9.75354406       0.71927768      -0.57266001       0.20180254
F        5.91605532       5.68360793       9.55761408      -0.74351495       0.99550569       0.94675346
F        6.08810853       3.81688917       7.84094445      -1.79843473       0.56621502      -0.47330641
F        3.90139422       5.70327115       3.76925267       1.50943887       0.81239584       0.84531213
F        7.81460977       9.86426674       7.52890782       0.06544923      -0.22473961       1.40524697
216
Lattice="11.704299689364166 0.0 0.0 0.0 11.704299689364166 0.0 0.0 0.0 11.704299689364166" Properties=species:S:1:pos:R:3:REF_forces:R:3 REF_energy=-109722.56893341953 REF_stress="-0.09408544714471821 0.0003498180513909911 -0.0005031503731292995 0.0003498180513909911 -0.09067173713140667 -0.00038562619838376967 -0.0005031503731292995 -0.00038562619838376967 -0.09029161987871408" free_REF_energy=-109722.56893341953 pbc="T T T"
Li       0.02270634      11.64847018       0.08895268       0.21762254      -0.34902365      -0.38893643
Li       3.78833068       5.93899575       9.95251715       0.31562888      -0.44130029      -0.46233731
Li       5.82593221       4.01480888       9.58734300       0.30050308      -0.58405025       0.62660946
Li       5.75406781       6.04679235       7.80653381       0.35060437      -0.74106701       0.25816190
Li       3.66824457       7.92299159       0.13378015       0.65567990      -0.25465157      -0.14391261
Li       3.96366109       9.72603896       2.14481292      -0.42010720      -0.20022286      -0.24221926
Li       5.90107382       7.83357074       1.92289940      -0.44396807      -0.43742281      -0.16919144
Li       3.80401444       3.96635308       7.93340842       0.54856029      -0.55916454      -1.09180559
Li       5.85975764       9.89411270       0.10990337       0.31248237      -1.19362616      -0.46740007
Li       3.71681741       9.87175749       5.79304313       0.81755835      -0.23832455       0.27088732
Li       5.87157898       8.01007158       6.06271020      -0.35867018      -1.26504240      -0.45779546
Li       5.78683985       9.57142516       3.84708626       0.02037728       0.55367087       0.62625337
Li       3.84158524       7.87652552       7.84387052      -0.04260729       0.09088181       0.07727193
Li       3.92316421       9.83676163       9.75974734      -0.56492741       0.01590202       0.57109832
Li       5.68899191       7.80302252       9.91436114       0.25101500       0.07680554      -0.10089214
Li       3.69282359       7.73525462       4.05390124       0.38998081       0.80154167      -0.66027472
Li       5.84641474       9.68694659       7.86294853      -0.30606232       1.07382921       0.12199396
Li       5.88714570       4.10598537       5.76799593      -0.54908968      -1.10631124       0.57256925
Li       4.00251936       4.09650489       3.98519700      -0.43679032      -0.59436680       0.02488956
Li       5.77455034      11.62412524       1.92488913       0.28045568       0.11495145       0.21199543
Li       6.00161375       1.87865714       0.07631203      -0.40826110       0.73623873      -0.81848807
Li       4.00368979       0.15250702       3.86370637      -0.42371214      -0.29900773       0.68780095
Li       3.85223616       2.00728740       5.65060180       0.49299798       0.13723340       1.23588610
Li       5.88211285       0.03569811       5.84828743      -0.61926562       0.17702225       0.33166202
Li       5.89299785       1.89691585       3.90174534      -0.77232108       0.15152154       0.24825852
Li       3.81197337       5.88574118       6.06692374      -0.08840944      -0.20450143      -0.27645452
Li       3.94973297       0.10416827       7.74625666      -0.08361176      -0.43384409       0.38688649
Li       5.80439630      11.65795066       9.70028950       0.00639510       0.69804448      -0.05797632
Li       5.75348260       1.95613961       7.93235503       0.39211946       0.56735428      -0.92586402
Li       3.74151348       4.14250279       0.25304696       1.04060464      -0.59806354      -0.72038505
Li       3.67901252       5.88082538       2.17009421       0.52601762       0.03553907      -0.92546961
Li       5.76272900       3.66403102       2.09261174       0.08268848       0.51854986      -0.74973780
Li       5.91383150       5.84863855      11.60539836      -0.26990361      -0.22540373       0.05156322
Li       4.14917424       1.97966525       9.82552550      -0.45175568       0.06881455      -0.04008247
Li       7.88167541       0.09000606       0.02434494       0.06455423      -0.10439065      -0.84370185
Li       7.93212094       1.95789525       1.78513979      -0.13814614       0.12869014       0.70765809
Li       9.80445776      11.66766523       1.93343327       0.58901531       0.20299194       0.09626390
Li       9.74301019       3.95698964       9.88357883       0.34778027      -0.22157356      -1.35963123
Li       9.54696317       5.86244963       7.78616833       0.50883134      -0.27395798      -0.16672241
Li       7.85733047       7.98291760       0.00386242      -0.01429148      -0.58428731      -0.22166097
Li       7.95260347      10.05703655       1.89855445      -0.47549365      -2.13416192       0.10434668
Li       9.33043363       7.82011079       2.02156664       1.78401932      -0.55467643      -0.71995337
Li       9.76173707       9.84589098       0.01837575      -0.10395253      -0.68422120      -0.61148007
Li       7.90449880       5.92787666       9.64539633      -0.63342700      -0.23727400       0.45660298
Li       7.66643334       7.62546829       3.93580486      -0.41691106       0.15921633      -0.05643237
Li       9.53163054       7.61025270       5.77443329       0.48281204       0.76736451      -0.06349005
Li       9.68776590       9.54134511       3.77206170       0.05420888       0.97083570       0.62383962
Li       7.83872063       7.93563223       7.97800180      -0.50158469      -0.47843396      -0.35684418
Li       7.69510887       9.78608201       9.83231400       0.02980243      -0.07100538      -0.03808884
Li       9.90371023       7.72296511       9.53373731      -0.58028898       0.93167008       0.92139776
Li       9.64492816       9.65312117       7.86049063       0.44909973       0.46349122      -0.34094653
Li       7.81554612       9.68577616       5.93642080      -0.32569501       0.40737381      -0.31130120
Li       7.82713337       3.79710891       7.69218280      -0.59340110       0.57833135       0.77088101
Li       9.87725851       5.75359964       3.70183591      -0.55309468      -0.15503264       0.57972643
Li       9.74324428       3.98133458       5.86479049       0.42161412      -0.14427025      -0.58174449
Li       9.86578829       1.91669612      11.51632864      -0.00450894       0.08149086      -0.10421915
Li       7.75023613      11.61394250       3.99596496      -0.00834503       0.26492107      -0.34690455
Li       7.78815806       1.91002467       5.91710871      -0.45596355      -0.01626300      -0.28245419
Li       9.87398130       0.04880693       5.88831613      -0.85166455      -0.07698191      -0.33600179
Li       9.94350484       1.81521984       3.84661809      -0.47970203       1.08178214       0.07904368
Li       8.06566700      11.70266109       8.03359722      -1.22056283       0.40752962      -1.22901379