42
Lattice="3.10266 -5.373964 0.0 3.10266 5.373964 0.0 0.0 0.0 15.580509" Properties=species:S:1:pos:R:3:REF_forces:R:3:magmoms:R:1 bandgap=0.8056999999999999 e_per_atom_relaxed=-8.453768253809525 mp_id=mp-1041039 REF_energy_per_atom=-8.453747573571428 ef_per_atom_relaxed=-8.453768253809525 corrected_total_REF_energy=-355.05739809 ef_per_atom=-2.582693352142857 task_id=mp-1361673 calc_id=0 ionic_step=0 pretrained=T config_weight=1.0 mace_descriptors head=pbe_mp REF_energy=-314.58139809 REF_stress="0.0010733983430249291 -0.0 0.0 -0.0 0.001073398037190982 -0.0 0.0 -0.0 0.00024895417572679137" pbc="T T T"
Ca       3.10266000       1.79132492      14.89396945       0.00000000      -0.00000000       0.00750392       0.01000000
Ca       0.00000000       0.00000000       9.68685428       0.00000000      -0.00000000       0.02976979       0.00900000
Ca       3.10266000      -1.79132492      10.30209742       0.00000000      -0.00000000      -0.00514110       0.00500000
Ca       3.10266000      -1.79132492       4.51619750       0.00000000      -0.00000000       0.05228838       0.01100000
Ca       0.00000000       0.00000000       0.03345135       0.00000000      -0.00000000      -0.02513826       0.00600000
Ca       0.00000000       0.00000000       5.91194624       0.00000000      -0.00000000       0.00573565       0.01300000
Cr       1.52273278      -0.87915364      12.99263320      -0.10728236       0.06193949       0.06434528       2.99300000
Cr       3.10266000      -3.61566747      12.99263320       0.00000000      -0.12387899       0.06434528       2.99300000
Cr       4.65146754      -2.68552566       7.73360377       0.00373329      -0.00215542      -0.04133735       2.97700000
Cr       4.68258722      -0.87915364      12.99263320       0.10728236       0.06193949       0.06434528       2.99300000
Cr       3.10266000      -0.00291269       7.73360377       0.00000000       0.00431083      -0.04133735       2.99000000
Cr       3.10266000       1.79132492       5.23047035       0.00000000      -0.00000000       0.06412156       2.98500000
Cr       3.10266000       1.79132492      11.17178585       0.00000000      -0.00000000      -0.00869062       3.04600000
Cr       4.61527191       0.91801815       2.67152756      -0.00498506       0.00287812       0.05405597       3.00400000
Cr       1.55385246      -2.68552566       7.73360377      -0.00373329      -0.00215542      -0.04133735       2.98600000
Cr       3.10266000       3.53793845       2.67152756       0.00000000      -0.00575625       0.05405597       3.00700000
Cr       1.59004809       0.91801815       2.67152756       0.00498506       0.00287812       0.05405597       3.00600000
Cr       3.10266000      -1.79132492       0.81049808       0.00000000      -0.00000000      -0.09030228       3.00800000
O        4.82093483       0.79927504      14.04603141      -0.00736752       0.00425364      -0.00192812      -0.03200000
O        0.00000000       0.00000000      11.95492456       0.00000000      -0.00000000       0.03916374      -0.05700000
O        3.10266000       3.77541392      14.04603141       0.00000000      -0.00850728      -0.00192812      -0.02600000
O        1.38438517       0.79927504      14.04603141       0.00736752       0.00425364      -0.00192812      -0.02800000
O        1.68404628      -0.97228444       8.74599408       0.00016615      -0.00009593       0.04380313      -0.01900000
O        1.57999548      -2.67043556      11.86521198      -0.05956505      -0.03438989      -0.06779154      -0.06200000
O        3.10266000      -1.79132492       6.69486681       0.00000000       0.00000000       0.01897517      -0.05600000
O        3.10266000      -0.03310362      11.86521198       0.00000000       0.06877978      -0.06779154      -0.06100000
O        3.10266000      -1.79132492      14.13957679       0.00000000      -0.00000000       0.09448128      -0.03100000
O        3.10266000      -3.42939513       8.74599408       0.00000000       0.00019185       0.04380313      -0.01000000
O        4.52127372      -0.97228444       8.74599408      -0.00016615      -0.00009593       0.04380313      -0.01300000
O        4.62532452      -2.67043556      11.86521198       0.05956505      -0.03438989      -0.06779154      -0.06400000
O        1.79363534       2.54708697       3.82216373       0.01304847      -0.00753353      -0.06833669      -0.05200000
O        1.80027193       1.03938375       6.54294127       0.00807287       0.00466087      -0.00803824      -0.03100000
O        3.10266000       3.29518575       6.54294127       0.00000000      -0.00932175      -0.00803824      -0.02800000
O        3.10266000       1.79132492       1.62711930       0.00000000      -0.00000000      -0.02517923      -0.03800000
O        3.10266000       1.79132492       8.96222039       0.00000000      -0.00000000       0.02257342      -0.03600000
O        3.10266000       0.27979006       3.82216373       0.00000000       0.01506707      -0.06833669      -0.04900000
O        4.41168466       2.54708697       3.82216373      -0.01304847      -0.00753353      -0.06833669      -0.05000000
O        4.40504807       1.03938375       6.54294127      -0.00807287       0.00466087      -0.00803824      -0.03800000
O        4.64809495      -0.89906418       1.54767428      -0.05003516      -0.02888781      -0.02027814      -0.05500000
O        3.10266000      -3.57583565       1.54767428      -0.00000000       0.05777562      -0.02027814      -0.05400000
O        0.00000000       0.00000000       3.60247855       0.00000000      -0.00000000      -0.04364430      -0.03200000
O        1.55722505      -0.89906418       1.54767428       0.05003516      -0.02888781      -0.02027814      -0.05600000
4
Lattice="-0.0 3.57539944 3.57539944 3.57539944 -0.0 3.57539944 3.57539944 3.57539944 0.0" Properties=species:S:1:pos:R:3:REF_forces:R:3:magmoms:R:1 bandgap=0.0 e_per_atom_relaxed=-7.4008970125 mp_id=mp-1187409 REF_energy_per_atom=-7.3899935325 ef_per_atom_relaxed=-7.4008970125 corrected_total_REF_energy=-29.55997413 ef_per_atom=-0.06810776250000039 task_id=mp-1187409 calc_id=0 ionic_step=2 pretrained=T config_weight=1.0 mace_descriptors head=pbe_mp REF_energy=-29.55997413 REF_stress="-0.002769187929970324 0.0 0.0 0.0 -0.002769187929970324 -0.0 0.0 -0.0 -0.002769187929970324" pbc="T T T"
Th       0.00000000       0.00000000       0.00000000      -0.00000000      -0.00000000      -0.00000000       0.00000000
Th       3.57539944       3.57539944       3.57539944       0.00000000       0.00000000       0.00000000       0.00000000
Cu       1.78769972       1.78769972       1.78769972      -0.00000000      -0.00000000       0.00000000      -0.00000000
Tc       5.36310631       5.36310631       5.36310631       0.00000000      -0.00000000       0.00000000      -0.00000000
40
Lattice="-7.02217 0.0 0.0 -0.915253 6.965758 0.0 -3.139091 2.755289 -11.114551" Properties=species:S:1:pos:R:3:REF_forces:R:3:magmoms:R:1 bandgap=3.1019 e_per_atom_relaxed=-7.49905530825 mp_id=mp-769511 REF_energy_per_atom=-7.4955525605 ef_per_atom_relaxed=-7.49905530825 corrected_total_REF_energy=-299.82210242 ef_per_atom=-2.388193459416666 task_id=mp-802737 calc_id=0 ionic_step=0 pretrained=T config_weight=1.0 mace_descriptors head=pbe_mp REF_energy=-269.73410242 REF_stress="-0.00039316572331798695 -0.0022527539305858785 -0.0012796532001423649 -0.0022527539305858785 -0.0011338686237307002 0.0011060516531037376 -0.0012796532001423649 0.0011060516531037376 -0.0016587048553192822" pbc="T T T"
Na      -8.05386244       4.36509401      -9.73001138      -0.03532282      -0.05094573      -0.00288982       0.00000000
Na      -2.59165796       7.41667838      -4.17769297      -0.00970551      -0.02625424       0.00478042       0.00000000
Na      -6.45406686       3.02220096      -4.16301065      -0.02507669      -0.01672539       0.00354514       0.00000000
Na      -3.02170041       5.31470367      -1.36987953       0.04266187       0.01199939       0.00387387       0.00000000
Li      -4.22551000       8.72205194      -9.72141983      -0.01072484      -0.01496950       0.00009321       0.00000000
Li      -4.40164353       6.97760523      -6.98074939       0.09266740       0.12845648      -0.02603972       0.00000000
Li      -8.42700196       2.36800033      -6.98496181       0.02205600       0.03120987      -0.02487799       0.00000000
Li      -6.84572835       0.98588992      -1.35060689       0.00823972       0.01045434       0.02694735       0.00000000
V       -7.83170136       7.99572083      -9.73553531      -0.15072935       0.19183688       0.11533866       0.00000000
V       -8.20685759       6.00123601      -7.01213688      -0.16255496       0.06525462       0.06995219       0.00000000
V       -6.26976707       6.62118884      -4.20514591      -0.13727392       0.08804353       0.07155874       0.00000000
V       -6.58185177       4.66702383      -1.40813581      -0.21243120       0.14397505       0.07875102       0.00000000
V       -4.49188129       5.08325690      -9.67701720       0.18563778      -0.13518268      -0.10485312       0.00000000
V       -4.82586512       3.06761989      -6.92814422       0.08912370      -0.15802234      -0.03890222       0.00000000
V       -2.91009302       3.65607708      -4.16632279       0.07152071      -0.14295719      -0.07626196       0.00000000
V       -3.25728519       1.72120207      -1.32273160       0.16807112      -0.18109313      -0.11026645       0.00000000
O       -9.00681945       9.06099043      -9.14226281       0.12103715      -0.15348829      -0.05646955       0.00000000
O       -9.50176876       6.98755145      -6.53422230       0.10049200      -0.06110270      -0.03265777       0.00000000
O       -7.36076953       7.72217594      -3.53652787       0.07710012      -0.05228970      -0.02664775       0.00000000
O       -6.37419327       8.77810341      -9.99023636      -0.01257831      -0.03023303       0.01535793       0.00000000
O       -7.57576689       6.57997833      -8.61353250       0.00999868      -0.03355773      -0.04874272       0.00000000
O       -7.79853282       5.67605245      -0.80368207       0.16346009      -0.10097547      -0.04512019       0.00000000
O       -8.72294121       4.43742454      -7.29229025      -0.01481363      -0.00226561      -0.03535303       0.00000000
O       -6.86171079       5.97550411      -5.79457116      -0.04981877      -0.04434608       0.00748449       0.00000000
O       -4.85308919       7.40738238      -4.59540003       0.03720634      -0.01537467      -0.07564510       0.00000000
O       -5.98077640       5.23488655      -3.03766236       0.01154914      -0.00040170      -0.02089254       0.00000000
O       -5.91761845       5.17013404     -10.82425004      -0.00730861       0.03277783       0.05851801       0.00000000
O       -7.16523848       3.12017349      -1.67648553       0.03944349       0.04585620      -0.00902207       0.00000000
O       -3.91564609       6.62924616      -9.38723863      -0.02831859       0.00702305       0.04870678       0.00000000
O       -5.16566047       4.59305330      -0.25724628       0.04653591       0.00113302      -0.05013395       0.00000000
O       -5.04905611       4.47333097      -8.05989449      -0.04146620       0.01231014       0.01729195       0.00000000
O       -6.30497394       2.33790201      -6.65269230       0.02967924       0.02010362       0.00503014       0.00000000
O       -4.33457362       3.74267089      -5.30825398      -0.03071850      -0.02019929       0.02315499       0.00000000
O       -2.30918584       5.16878968      -3.82107149       0.00093390       0.05277712       0.00862959       0.00000000
O       -3.28214285       4.07187262     -10.29239655      -0.15250255       0.12850989       0.05204006       0.00000000
O       -3.49347222       3.05289708      -2.54910004       0.01069955      -0.01075558       0.04619797       0.00000000
O       -4.71712823       0.94871905      -1.05311482       0.00051121       0.01383982       0.03236340       0.00000000
O       -3.68640887       1.93069949      -7.48083750      -0.07381391       0.13584222       0.01262621       0.00000000
O       -1.67587409       2.70696571      -4.81550148      -0.05519315       0.02317751       0.01829873       0.00000000
O       -2.08043306       0.62885134      -1.83899138      -0.11827363       0.10655946       0.06423511       0.00000000
4
Lattice="1.640308 2.751279 0.0 -1.640308 2.751279 0.0 0.0 1.535578 7.090378" Properties=species:S:1:pos:R:3:REF_forces:R:3:magmoms:R:1 bandgap=2.4003000000000005 e_per_atom_relaxed=-1.90213894 mp_id=mp-561367 REF_energy_per_atom=-1.87265433 ef_per_atom_relaxed=-1.90213894 corrected_total_REF_energy=-7.49061732 ef_per_atom=0.03880144250000006 task_id=mp-663351 calc_id=0 ionic_step=0 pretrained=T config_weight=1.0 mace_descriptors head=pbe_mp REF_energy=-7.49061732 REF_stress="-0.001144932173011022 -0.0 -0.0 -0.0 -0.001530500931149276 -0.0003196720781908941 -0.0 -0.0003196720781908941 7.274352183581683e-05" pbc="T T T"
F        0.00000000       3.64360289       4.24814326       0.00000000      -0.00843540      -0.01889982       0.00000000
F        0.00000000       1.65985611       6.38759391       0.00000000       0.00704583       0.01643234       0.00000000
F        0.00000000       3.39453311       2.84223474       0.00000000       0.00843540       0.01889982       0.00000000
F        0.00000000       5.37827989       0.70278409       0.00000000      -0.00704583      -0.01643234       0.00000000
36
Lattice="0.0 0.0 -6.78544571 0.0 -8.40505494 0.0 -9.40728795 0.0 0.0" Properties=species:S:1:pos:R:3:REF_forces:R:3:magmoms:R:1 bandgap=1.8440999999999999 e_per_atom_relaxed=-4.104310382222222 mp_id=mp-1197441 REF_energy_per_atom=-4.0984578577777775 ef_per_atom_relaxed=-4.104310382222222 corrected_total_REF_energy=-147.54448288 ef_per_atom=-0.2977565043055558 task_id=mp-1197441 calc_id=0 ionic_step=1 pretrained=T config_weight=1.0 mace_descriptors head=pbe_mp REF_energy=-135.55648288 REF_stress="0.0013338280762909506 -0.0 -0.0 -0.0 -0.004949421591260309 -0.0 -0.0 -0.0 3.272499381111928e-05" pbc="T T T"
Ga       0.00000000      -0.79223232      -1.69636143       0.00000000       0.05823784      -0.00000000       0.01000000
Ga      -4.70364398      -3.41029515      -5.08908428       0.00000000      -0.05823784      -0.00000000       0.01000000
Ga       0.00000000      -7.61282262      -5.08908428       0.00000000      -0.05823784      -0.00000000       0.01000000
Ga      -4.70364398      -4.99475979      -1.69636143       0.00000000       0.05823784      -0.00000000       0.01000000
N       -7.93442227      -3.39388277      -4.98739298       0.01079626       0.03491836       0.07722058       1.35500000
N       -6.17650965      -0.80864470      -1.59467012      -0.01079626      -0.03491836       0.07722058       1.35500000
N       -3.23077830      -0.80864470      -1.79805273       0.01079626      -0.03491836      -0.07722058       1.35500000
N       -1.47286568      -3.39388277      -5.19077559      -0.01079626       0.03491836      -0.07722058       1.35500000
N       -1.47286568      -5.01117217      -1.79805273      -0.01079626      -0.03491836      -0.07722058       1.35500000
N       -3.23077830      -7.59641024      -5.19077559       0.01079626       0.03491836      -0.07722058       1.35500000
N       -6.17650965      -7.59641024      -4.98739298      -0.01079626       0.03491836       0.07722058       1.35500000
N       -7.93442227      -5.01117217      -1.59467012       0.01079626      -0.03491836       0.07722058       1.35500000
O        0.00000000      -7.31852054      -1.69636143       0.00000000      -0.05904011      -0.00000000       0.04200000
O       -4.70364398      -5.28906187      -5.08908428       0.00000000       0.05904011      -0.00000000       0.04200000
O        0.00000000      -1.08653440      -5.08908428       0.00000000       0.05904011      -0.00000000       0.04200000
O       -4.70364398      -3.11599307      -1.69636143       0.00000000      -0.05904011      -0.00000000       0.04200000
F        0.00000000      -4.19498923      -1.69636143       0.00000000      -0.06931077      -0.00000000       0.04800000
F       -4.70364398      -0.00753824      -5.08908428       0.00000000       0.06931077      -0.00000000       0.04800000
F        0.00000000      -4.21006571      -5.08908428       0.00000000       0.06931077      -0.00000000       0.04800000
F       -4.70364398      -8.39751670      -1.69636143       0.00000000      -0.06931077      -0.00000000       0.04800000
F       -7.84769300      -1.62888544      -1.11505236       0.00209321       0.01703393       0.01045283       0.01900000
F       -6.26323892      -2.57364203      -4.50777522      -0.00209321      -0.01703393       0.01045283       0.01900000
F       -3.14404903      -2.57364203      -5.67039335       0.00209321      -0.01703393      -0.01045283       0.01900000
F       -1.55959495      -1.62888544      -2.27767049      -0.00209321       0.01703393      -0.01045283       0.01900000
F       -1.55959495      -6.77616950      -5.67039335      -0.00209321      -0.01703393      -0.01045283       0.01900000
F       -3.14404903      -5.83141291      -2.27767049       0.00209321       0.01703393      -0.01045283       0.01900000
F       -6.26323892      -5.83141291      -1.11505236      -0.00209321       0.01703393       0.01045283       0.01900000
F       -7.84769300      -6.77616950      -4.50777522       0.00209321      -0.01703393       0.01045283       0.01900000
F       -5.50895185      -5.29955289      -3.47261944      -0.00794100       0.03165166      -0.00396279       0.01000000
F       -8.60198008      -7.30802952      -0.07989659       0.00794100      -0.03165166      -0.00396279       0.01000000
F       -0.80530787      -7.30802952      -3.31282627      -0.00794100      -0.03165166       0.00396279       0.01000000
F       -3.89833610      -5.29955289      -6.70554912       0.00794100       0.03165166       0.00396279       0.01000000
F       -3.89833610      -3.10550205      -3.31282627       0.00794100      -0.03165166       0.00396279       0.01000000
F       -0.80530787      -1.09702542      -6.70554912      -0.00794100       0.03165166       0.00396279       0.01000000
F       -8.60198008      -1.09702542      -3.47261944       0.00794100       0.03165166      -0.00396279       0.01000000
F       -5.50895185      -3.10550205      -0.07989659      -0.00794100      -0.03165166      -0.00396279       0.01000000
12
Lattice="8.046617 2.787678 0.0 -8.046617 2.787678 0.0 0.0 0.0 5.406859" Properties=species:S:1:pos:R:3:REF_forces:R:3:magmoms:R:1 bandgap=0.0 e_per_atom_relaxed=-1.8535433941666666 mp_id=mp-1103107 REF_energy_per_atom=-1.8535433941666666 ef_per_atom_relaxed=-1.8535433941666666 corrected_total_REF_energy=-22.24252073 ef_per_atom=0.055379459166666756 task_id=mp-1927602 calc_id=0 ionic_step=0 pretrained=T config_weight=1.0 mace_descriptors head=pbe_mp REF_energy=-22.24252073 REF_stress="0.005449988419903425 -0.0 -0.0 -0.0 -0.0024558514516553856 -0.0 -0.0 -0.0 -0.0026025499909728806" pbc="T T T"
Li       0.00000000       4.21470709       3.23226897       0.00000000      -0.00129308      -0.03696877      -0.00000000
Li       0.00000000       1.36064891       2.17459003       0.00000000       0.00129308       0.03696877      -0.00000000
Li       0.00000000       4.14832691       0.52883947      -0.00000000       0.00129308      -0.03696877      -0.00000000
Li       0.00000000       1.42702909       4.87801953      -0.00000000      -0.00129308       0.03696877      -0.00000000
Li       2.63235419       3.44774440       4.07607420      -0.00863024      -0.01744831       0.00054929       0.00000000
Li       2.63235419       2.12761160       1.33078480      -0.00863024       0.01744831      -0.00054929       0.00000000
Li      -5.41426281       2.12761160       1.37264470      -0.00863024       0.01744831       0.00054929       0.00000000
Li      -5.41426281       3.44774440       4.03421430      -0.00863024      -0.01744831      -0.00054929       0.00000000
Li      -2.63235419       2.12761160       1.33078480       0.00863024       0.01744831      -0.00054929       0.00000000
Li      -2.63235419       3.44774440       4.07607420       0.00863024      -0.01744831       0.00054929       0.00000000
Li       5.41426281       3.44774440       4.03421430       0.00863024      -0.01744831      -0.00054929       0.00000000
Li       5.41426281       2.12761160       1.37264470       0.00863024       0.01744831       0.00054929       0.00000000
28
Lattice="-5.552307 0.0 0.0 -1.535635 6.286385 0.0 -1.80781 2.396161 -8.989168" Properties=species:S:1:pos:R:3:REF_forces:R:3:magmoms:R:1 bandgap=2.3914 e_per_atom_relaxed=-7.739456238214286 mp_id=mp-752741 REF_energy_per_atom=-7.726545629642857 ef_per_atom_relaxed=-7.739456238214286 corrected_total_REF_energy=-216.34327763 ef_per_atom=-2.5556332353911557 task_id=mp-796770 calc_id=0 ionic_step=0 pretrained=T config_weight=1.0 mace_descriptors head=pbe_mp REF_energy=-198.55127763 REF_stress="-0.0013122269559458547 -9.383723869652412e-05 -0.00027037969121263065 -9.383723869652412e-05 -0.0004518636900584088 -0.00026420029134405904 -0.00027037969121263065 -0.00026420029134405904 -0.00036565673995884085" pbc="T T T"
Li      -5.95118948       4.38661444      -7.99777963      -0.04424138       0.03120187      -0.03732146       0.00100000
Li      -3.15231802       4.80988477      -6.74348506      -0.02479052       0.01939291      -0.00220630       0.00200000
Li      -5.74343398       3.87266123      -2.24568294       0.02479052      -0.01939291       0.00220630       0.00200000
Li      -2.94456252       4.29593156      -0.99138837       0.04424138      -0.03120187       0.03732146       0.00100000
V       -4.47527837       7.84804542      -7.07007052       0.07798291      -0.00569377      -0.00595022       2.72600000
V       -5.61214701       2.45319466      -5.24321090      -0.00529380      -0.00927491       0.01769841       2.71400000
V       -3.28360499       6.22935134      -3.74595710       0.00529380       0.00927491      -0.01769841       2.71400000
V       -4.42047363       0.83450058      -1.91909748      -0.07798291       0.00569377       0.00595022       2.72600000
P       -7.44350790       7.34367923      -8.28648474       0.03728868      -0.01773237       0.04037216       0.00900000
P       -5.82305268       5.68389710      -4.93680612      -0.02659925       0.09947655      -0.00250941       0.01300000
P       -3.07269932       2.99864890      -4.05236188       0.02659925      -0.09947655       0.00250941       0.01300000
P       -1.45224410       1.33886677      -0.70268326      -0.03728868       0.01773237      -0.04037216       0.00900000
O       -6.07218003       6.64305845      -8.01972219       0.00111933       0.06527634      -0.01476088      -0.00300000
O       -3.10855911       6.42564376      -7.96140047      -0.01258223      -0.01950275      -0.02919852       0.00100000
O       -3.20139952       3.33893170      -8.20073706      -0.00496494       0.00180285       0.10600445      -0.00200000
O       -6.09199100       2.32626241      -7.37399429      -0.04552822      -0.01448633       0.00538768       0.00800000
O       -7.04170749       6.64088077      -4.96145442       0.08056347       0.02121436      -0.02322778       0.00100000
O       -4.52038193       6.26557322      -5.58913206       0.03480266      -0.02854259      -0.05680134      -0.00100000
O       -6.23045380       4.41362351      -5.68799493      -0.01144400      -0.04030665      -0.03776938      -0.00100000
O       -3.50591530       3.19512914      -5.55506312       0.01674279      -0.00582079       0.02707368       0.00300000
O       -5.38983670       5.48741686      -3.43410488      -0.01674279       0.00582079      -0.02707368       0.00300000
O       -2.66529820       4.26892249      -3.30117307       0.01144400       0.04030665       0.03776938      -0.00100000
O       -4.37537007       2.41697278      -3.40003594      -0.03480266       0.02854259       0.05680134      -0.00100000
O       -1.85404451       2.04166523      -4.02771358      -0.08056347      -0.02121436       0.02322778       0.00100000
O       -2.80376100       6.35628359      -1.61517371       0.04552822       0.01448633      -0.00538768       0.00800000
O       -5.69435248       5.34361430      -0.78843094       0.00496494      -0.00180285      -0.10600445      -0.00200000
O       -5.78719289       2.25690224      -1.02776753       0.01258223       0.01950275       0.02919852       0.00100000
O       -2.82357197       2.03948755      -0.96944581      -0.00111933      -0.06527634       0.01476088      -0.00300000
64
Lattice="0.0 6.46407437 4.46233483 0.0 -6.46407437 4.46233483 12.55094349 0.0 0.0" Properties=species:S:1:pos:R:3:REF_forces:R:3:magmoms:R:1 bandgap=4.4843 e_per_atom_relaxed=-6.93723236421875 mp_id=mp-1198782 REF_energy_per_atom=-6.936288519375 ef_per_atom_relaxed=-6.93723236421875 corrected_total_REF_energy=-443.92246524 ef_per_atom=-2.873948253125 task_id=mp-1238346 calc_id=0 ionic_step=2 pretrained=T config_weight=1.0 mace_descriptors head=pbe_mp REF_energy=-421.93846524 REF_stress="0.0008765256600104297 -0.0 -0.0 -0.0 2.9005815836206217e-05 -0.0 -0.0 -0.0 0.0006531791666498396" pbc="T T T"
Ca       6.27547174      -1.83193872       4.46233483      -0.00000000       0.04627333       0.00000000      -0.00000000
Ca       0.00000000       4.63213565       4.46233483      -0.00000000       0.04627333       0.00000000      -0.00000000
Ca       6.27547174       1.83193872       4.46233483       0.00000000      -0.04627333       0.00000000      -0.00000000
Ca       0.00000000      -4.63213565       4.46233483      -0.00000000      -0.04627333       0.00000000      -0.00000000
Ca      10.66107225       0.00000000       2.57062776       0.04975257      -0.00000000      -0.07969177      -0.00000000
Ca       1.88987124       0.00000000       6.35404190      -0.04975257      -0.00000000       0.07969177      -0.00000000
Ca       4.38560050       0.00000000       1.89170707       0.04975257      -0.00000000       0.07969177      -0.00000000
Ca       8.16534299       0.00000000       7.03296259      -0.04975257       0.00000000      -0.07969177      -0.00000000
Al       7.89518343      -1.58650641       1.22108923      -0.00982090      -0.00035162      -0.04415203      -0.00000000
Al       4.65576006      -1.58650641       7.70358043       0.00982090      -0.00035162       0.04415203       0.00000000
Al       1.61971168      -1.58650641       3.24124560      -0.00982090      -0.00035162       0.04415203       0.00000000
Al      10.93123181      -1.58650641       5.68342406       0.00982090      -0.00035162      -0.04415203      -0.00000000
Al       4.65576006       1.58650641       7.70358043       0.00982090       0.00035162       0.04415203       0.00000000
Al       7.89518343       1.58650641       1.22108923      -0.00982090       0.00035162      -0.04415203       0.00000000
Al      10.93123181       1.58650641       5.68342406       0.00982090       0.00035162      -0.04415203       0.00000000
Al       1.61971168       1.58650641       3.24124560      -0.00982090       0.00035162       0.04415203       0.00000000
Al       9.41320762      -3.23203719       3.47214398       0.00000000      -0.00000000      -0.06652274       0.00000000
Al       3.13773587      -3.23203718       5.45252568      -0.00000000       0.00000000       0.06652274       0.00000000
Al       3.13773587       3.23203718       5.45252568       0.00000000      -0.00000000       0.06652274       0.00000000
Al       9.41320762       3.23203719       3.47214398       0.00000000      -0.00000000      -0.06652274       0.00000000
H       11.94357334      -2.23878064       3.04745657      -0.04390438      -0.02883254       0.05368962       0.00000000
H        0.60737015      -2.23878064       5.87721309       0.04390438      -0.02883254      -0.05368962       0.00000000
H        5.66810159       4.22529373       5.87721309      -0.04390438      -0.02883254      -0.05368962      -0.00000000
H        6.88284190       4.22529373       3.04745657       0.04390438      -0.02883254       0.05368962       0.00000000
H        0.60737015       2.23878064       5.87721309       0.04390438       0.02883254      -0.05368962       0.00000000
H       11.94357334       2.23878064       3.04745657      -0.04390438       0.02883254       0.05368962       0.00000000
H        6.88284190      -4.22529373       3.04745657       0.04390438       0.02883254       0.05368962      -0.00000000
H        5.66810159      -4.22529373       5.87721309      -0.04390438       0.02883254      -0.05368962       0.00000000
H        8.51437644       0.00000000       4.30921213      -0.15105449      -0.00000000       0.12292760       0.00000000
H        4.03656705       0.00000000       4.61545753       0.15105449      -0.00000000      -0.12292760       0.00000000
H        2.23890470       0.00000000       0.15312270      -0.15105449      -0.00000000      -0.12292760       0.00000000
H       10.31203879       0.00000000       8.77154696       0.15105449      -0.00000000       0.12292760       0.00000000
O       10.88108363      -2.85081833       4.42385964      -0.02279279      -0.00166034      -0.02858995      -0.00000000
O        1.66985986      -2.85081833       4.50081002       0.02279279      -0.00166034       0.02858995      -0.00000000
O        4.60561189       3.61325604       4.50081002      -0.02279279      -0.00166034       0.02858995       0.00000000
O        7.94533160       3.61325604       4.42385964       0.02279279      -0.00166034      -0.02858995      -0.00000000
O        1.66985986       2.85081833       4.50081002       0.02279279       0.00166034       0.02858995       0.00000000
O       10.88108363       2.85081833       4.42385964      -0.02279279       0.00166034      -0.02858995      -0.00000000