216
Lattice="12.250283036677809 0.0 0.0 0.0 12.250283036677809 0.0 0.0 0.0 12.250283036677809" Properties=species:S:1:pos:R:3:REF_forces:R:3 REF_energy=-109739.59947815335 REF_stress="-0.006843028706081514 -2.7544728455983548e-06 -0.00024422992564305417 -2.7544728455983548e-06 -0.0037782185865457437 -5.14168264511693e-05 -0.00024422992564305417 -5.14168264511693e-05 -0.005789901921447742" free_REF_energy=-109739.59947815335 pbc="T T T"
Li      12.20635352       0.03611138       0.11008839       0.26802131       0.12112081      -0.34606200
Li      -0.07632294      12.25346811       3.98621760       0.02119335       0.22002832       0.22141106
Li       0.03884075       0.15714051       8.23445650      -0.03518169      -0.33011113      -0.12232383
Li      12.28139876       4.25496431       0.08773163       0.03633457      -0.58503113      -0.14746922
Li      12.26081828       4.05165861       4.15687629      -0.10120273       0.25943151      -0.10970871
Li      12.22906555       4.16335669       8.27716099       0.27433259      -0.21083637      -0.39198499
Li      12.07419747       8.04414836      12.24184259       0.25970610       0.48387673       0.24417510
Li       0.16720656       8.19846517       4.12915390      -0.50456871      -0.25274175      -0.16097600
Li       0.03957821       8.21110746       8.24396272      -0.18715446      -0.23859786      -0.16626681
Li       3.85371854       0.14097626       0.06683754       0.65148052      -0.20437648      -0.12710480
Li       4.20907475      12.20688028       4.18982955      -0.17795736       0.25934563      -0.16799819
Li       3.91133162      12.18832111       8.03391937       0.27995277       0.06032219       0.30504519
Li       3.99718160       4.02859133       0.08114710       0.42308685      -0.00677409      -0.05866075
Li       4.14831334       4.17907381       4.12670385      -0.06167819      -0.37961695       0.06590123
Li       4.08929148       4.17134388       8.15441315       0.04258570      -0.61779829       0.20096077
Li       4.36205628       8.22098119       0.14262147      -0.72346935      -0.03796671      -0.32991599
Li       3.81521590       8.16143257       4.19889476       0.85721788       0.09440422      -0.11396466
Li       4.07219009       8.08077670       8.00928405       0.18788285       0.59312573       0.64683068
Li       8.26825503      12.13374609       0.04427987      -0.60329804       0.24619675       0.25319890
Li       8.20749363      12.11998903       4.23678489      -0.06042144       0.30791146      -0.48755778
Li       8.26216664       0.24848229       8.07849815      -0.39240691      -0.57510898       0.10990926
Li       8.11012838       4.00954214      12.17773686      -0.07498108       0.00210779       0.19947801
Li       8.01322864       3.97573136       4.13155496       0.43626350       0.25936260      -0.29245424
Li       8.19505959       3.92698748       8.29243709      -0.17586166       0.34667341      -0.22830753
Li       8.17771319       8.17740693      12.20185767      -0.08340119       0.18886244       0.06578167
Li       8.17235982       7.92672939       4.19942153       0.05631359       0.25564324      -0.28355128
Li       8.08739186       8.21782062       8.07016796       0.13719946      -0.19805953       0.23406552
Li      12.09630923       2.14259900       2.14976542       0.58875511       0.02628799      -0.29606664
Li      12.15393456       2.07675373       6.17508592       0.17191990       0.24957518      -0.30571265
Li       0.03645072       2.04627503      10.24752101       0.01590870       0.19390489       0.19940036
Li      12.01524911       6.22996719       2.11047876       0.45111008      -0.14034469       0.06912565
Li      12.22601523       6.05286485       6.11233997      -0.08054212       0.11636504       0.06129613
Li      -0.01465379       6.26839633      10.08450650       0.16238753      -0.24751547       0.21834579
Li       0.15878082      10.20117819       2.02244823      -0.38102129      -0.23921338      -0.17157151
Li      12.21453671      10.27995976       6.06487013      -0.09496035       0.07884776      -0.03614585
Li       0.03417216      10.25507944      10.13766048      -0.00803367      -0.11576726       0.30237227
Li       4.22419160       1.96391638       2.31797406      -0.17436013       0.45571338      -0.76808570
Li       4.17194414       1.97675467       6.18829173      -0.09268004       0.36460454      -0.88013901
Li       4.08223532       1.89970039      10.12676997      -0.10418881       0.45455176       0.16682474
Li       4.14209020       6.06562964       1.91761031       0.14982615       0.10172184       0.94476446
Li       3.89968160       6.01348019       6.36193949       0.40791709       0.02789287      -0.80794654
Li       4.12952141       6.14178965      10.28228732      -0.17946634      -0.16805322       0.16626630
Li       4.13204497      10.20911638       1.97299384       0.15507840       0.15203961       0.01381454
Li       4.09509812      10.24104061       5.96179624      -0.08869432      -0.10872655       0.71804406
Li       3.93357813      10.23753703      10.27773021       0.54919535      -0.04008941      -0.09707226
Li       8.16202058       1.94132685       2.07757450      -0.10557412       0.08268256      -0.23549171
Li       8.09226747       1.98589338       5.96039971       0.31355837       0.12908995       0.13130778
Li       8.02898251       1.92258392      10.42152403       0.38251587       0.25969170      -0.38995356
Li       8.18340957       6.28003410       1.90882685      -0.22158693      -0.43198441       0.34939441
Li       8.07043746       6.24138445       6.26555426       0.21518642      -0.49306997      -0.33348854
Li       8.16486265       6.25079267      10.24074661      -0.16101842      -0.28041428      -0.27938687
Li       8.12680102      10.11793752       2.16732007      -0.17065800       0.31608911      -0.41177143
Li       8.12468172      10.15084178       6.08292704       0.09295104       0.00979642       0.15443023
Li       8.19755865      10.22326545      10.04815991      -0.27284727       0.00222143       0.28705313
Li       2.10757544      -0.00136591       2.10354510      -0.17069194       0.42790253      -0.13132784
Li       1.94867702       0.18951678       5.99255671       0.01289640      -0.05641592       0.01286477
Li       2.00582459      12.20950184      10.22439248      -0.06362143       0.26034065      -0.20483722
Li       2.14334627       4.17364693       2.09699120      -0.20072782      -0.27458250       0.03380204
Li       2.06755377       4.11872891       6.27226742      -0.21841676      -0.28266245      -0.61736198
Li       2.10865347       4.00701858      10.22137891      -0.15794698       0.21037486      -0.01414081
Li       2.28598857       8.15531967       1.98846594      -0.70933651      -0.16615060      -0.19829839
Li       1.90624204       8.36615930       6.30145984       0.44517983      -0.49908969      -0.25411112
Li       2.09755471       8.08532156      10.29860469       0.12815329       0.34136460       0.13976851
Li       6.07919071      -0.00325613       2.06064461       0.48627171      -0.03125742      -0.15510154
Li       6.11934713      12.17298375       6.20512362       0.19817215       0.07385442      -0.11733615
Li       6.09821540      12.20080414      10.12512844       0.09571009      -0.20613871       0.25235018
Li       6.13608102       4.20040155       2.11987473       0.14413913      -0.34021403      -0.31764771
Li       6.25739557       3.99133822       6.21585486      -0.27179620       0.11716311      -0.06238525
Li       6.18511890       3.95990399      10.28537439      -0.37075436       0.32813010      -0.04771376
Li       6.19406161       8.12767079       2.15351401      -0.13717864      -0.00779096      -0.05520673
Li       5.97479379       8.21856789       6.06246907       0.16541552      -0.18652068       0.44825821
Li       6.09651261       8.05868944      10.18651460      -0.02838189       0.57292329      -0.02851456
Li      10.34925961      12.00149204       1.93744351      -0.43391428       0.65036569       0.28955558
Li      10.16037250      12.23642797       6.17977778       0.14495185      -0.13850173      -0.45935792
Li      10.13050631       0.09002856      10.24885629       0.13989167       0.08896943       0.15520439
Li      10.05402779       4.16463072       1.99446858       0.05665606      -0.23716138       0.37304804
Li      10.08497201       4.14517727       6.06039877       0.18351197      -0.26918087       0.06651495
Li      10.29358208       4.14370724      10.04637137      -0.18773244      -0.50803790       0.70157769
Li      10.14986176       8.28329838       2.10527239       0.28748944      -0.34364902      -0.25240031
Li      10.14316085       8.20247101       6.22822765       0.13134686      -0.29326851      -0.22193737
Li      10.10131389       8.14041108      10.18364804       0.02922470       0.18810242      -0.00545665
Li       2.01724186       2.13467307      -0.00375104      -0.00592716      -0.01867367       0.13491632
Li       1.97042128       2.13827465       3.99823513       0.19969501       0.02020759       0.14016240
Li       1.99174902       2.08445916       8.02088507       0.33783010       0.15191234       0.27258399
Li       1.87725787       6.16847077       0.09350396       0.68382474      -0.00336326      -0.06685357
Li       2.28008393       6.22903617       4.05053159      -0.81399712      -0.49722230      -0.05957040
Li       2.15859787       6.14687352       8.17768869      -0.80659517      -0.14838633       0.21426211
Li       1.94083684      10.18291302       0.02707068       0.11906239      -0.06880452      -0.29234163
Li       2.00627785      10.31824190       3.93351688       0.23521120       0.00160180       0.31720420
Li       2.13787039      10.23886006       8.04692917      -0.03386631       0.01622186       0.28689269
Li       6.03886277       1.94922829      12.22981281       0.05366715       0.44744805       0.46872290
Li       6.12418600       2.06689225       4.05109510       0.04836888      -0.05320538       0.06327948
Li       6.13969485       1.97545614       8.22567305      -0.02504614       0.09318166      -0.22982577
Li       6.08242478       6.11129870      12.22291590       0.15987531      -0.21178228       0.20454000
Li       6.12860835       6.12712606       4.21109605      -0.01685101      -0.06078988      -0.14280884
Li       6.06003126       6.08562211       8.16677369       0.32472699      -0.03251726      -0.01221583
Li       6.29119410      10.23957058      12.13679641      -0.43167922       0.16426778       0.01829777
Li       6.12479851      10.14276884       4.05709774       0.07741874       0.03144048       0.15562836
Li       6.19308159      10.14923699       8.23410124      -0.31653854       0.08920520      -0.01825252
Li      10.29070326       2.18655302       0.08399039      -0.15273638      -0.19694959      -0.30135746
Li      10.24227789       1.95465516       4.03257267      -0.20627498       0.19420108       0.08992150
Li      10.29505211       1.91224468       8.03785171      -0.20942252       0.84508818       0.22820058
Li      10.11416443       6.05238709      12.35441044       0.04791534       0.21410424      -0.33318540
Li      10.17659188       6.04907951       4.19681222      -0.00676097       0.01514843      -0.10452434
Li      10.11560997       5.86373273       8.28686321       0.03028091       0.78706327      -0.83897513
Li      10.28303458      10.26398539      12.09235239      -0.09435537      -0.42021904       0.36691005
Li      10.12103684      10.08689530       3.94457889       0.21866127       0.22175071       0.50615560
Li      10.33748709      10.06736835       8.22866212      -0.62140015       0.15257209      -0.14431705
F        1.98354133       0.01401922      12.05698582       0.34144996       0.04970585       0.85713072
F        2.00137774       0.13184612       3.97755665       0.15585590      -0.29647365       0.37857746
F        1.95694596       0.11665332       8.14447817       0.15672056      -0.49690245      -0.04369127
F        2.04384947       4.11943943      -0.00770053       0.08887584       0.13189116       0.19696090
F        2.02945539       4.10467784       4.11496807       0.10916338       0.11767399      -0.20967063
F        2.03809184       4.11714862       8.11391372       0.15028021       0.07836311       0.37792183
F        2.05979934       8.14467418       0.05877808       0.17652037       0.06465579      -0.23601596
F        2.01991242       8.31726842       4.03543924       0.03953714      -0.46109393      -0.12776583
F        2.12464009       8.18148628       8.23392974      -0.39155947      -0.02399431      -0.04645238
F        6.18881849       0.13726442       0.08525339      -0.15630893      -0.66188063       0.03043852
F        6.15860929      12.14624138       4.22922646      -0.14991871       0.02036956      -0.25794233
F        6.25869410      12.11958477       8.09474202      -0.28035515       0.57799068       0.37636168
F        6.09725987       4.10080675       0.03838259       0.19232546       0.15549518      -0.50315306
F        6.09490782       4.05583596       4.29464298       0.14363596       0.16041910      -0.36449990
F        6.10068995       4.09978997       8.21631383      -0.05498793      -0.23889508      -0.25602891
F        6.13557876       8.06023298      12.30467429       0.53050806       0.39472681      -0.10525068
F        6.20443760       8.08760011       4.28530826      -0.22541324       0.26235100      -1.02618229
F        6.05285260       8.15540543       8.13423694       0.08585376      -0.25239028      -0.05634624
F       10.09994185       0.01961883       0.02685875       0.80186126      -0.44681711      -0.19798060
F       10.21371023      12.21989008       4.11104798      -0.07658854      -0.15980615      -0.20678406
F       10.18706587       0.05644073       8.07732212       0.16920070      -0.04426411       0.75097604
F       10.17631012       4.14471176      12.22284240       0.11130717       0.11527875       0.19658449
F       10.15964973       4.03376095       4.08719668       0.07633708       0.11339979      -0.23511993
F       10.11578147       4.00009717       8.15284512       0.44199423       0.12198008       0.34473788
F       10.10694902       8.11837282       0.03096259       0.27877186      -0.12077320      -0.26344269
F       10.18211675       8.13118662       4.13113845       0.13623479       0.12623140      -0.30112220
F       10.14291585       8.10787433       8.22186321       0.36424381       0.47229057      -0.43649181
F        2.10539489       2.16324073       1.99045049      -0.11414927      -0.41167810       0.29399999
F        1.96365912       2.13968344       6.09996719      -0.14333669      -0.31217358      -0.04771196
F        2.11586889       2.07942429      10.17415407       0.03841999      -0.22524252       0.01681090
F        2.19556923       6.14234092       2.02024318      -0.26082762      -0.08970630       0.26866100
F        1.94763575       6.05079455       6.08182452       0.68876280       0.40230514       0.13215676
F        2.01448554       6.19199131      10.16270005       0.11140616       0.11943006       0.19026755
F        2.05723903      10.35259169       1.90796933       0.43868291      -0.31089394       0.56357141
F        2.14926316      10.14845297       6.09899941      -0.58868004       0.69810387       0.16688876
F        1.97978049      10.28010677      10.17480333       0.20132021      -0.23885214      -0.12315070
F        6.11965339       2.22617043       2.07974280       0.28329700      -1.26698333       0.19157547
F        6.21551186       1.89606206       6.08378456      -0.24521639       0.33057805       0.28594138
F        6.15128362       2.00456281      10.30463183      -0.38616581       0.05295213      -0.64052376
F        6.16664548       6.22299678       2.03956187       0.15239957      -0.32904541       0.24418769
F        6.11650507       6.14191216       6.14834355      -0.21414281      -0.15867306       0.35918954
F        6.07070126       6.13750205      10.12028957       0.13610160       0.14401289       0.32400322
F        6.16102260      10.16730616       2.13087548      -0.20694809      -0.19272347      -0.14300861
F        6.08475234      10.15455362       6.10103296       0.07922469       0.15799686      -0.02360196
F        6.11624781      10.20308924      10.20812410       0.15276261       0.23135378      -0.03225012
F       10.29589738       1.91629953       2.03368174      -0.41205528       0.37651235      -0.02853127
F       10.23223266       2.08845275       6.08759440      -0.19799140      -0.41382780       0.25735483
F       10.32765012       2.20366666      10.28252007      -0.18952656      -0.76555008      -0.36913174
F       10.14080880       6.08230228       1.99759240      -0.10183625       0.18546781       0.04632279
F       10.22939059       6.05688294       6.19325309      -0.20224709       0.37357640      -0.27057827
F       10.12155135       6.23917940      10.10228166       0.37388005      -0.66679504       0.49914343
F       10.40518216      10.13951027       1.94011408      -0.76765119       0.26118423       0.53246055
F       10.07393450      10.14999651       6.00774706       0.61270314       0.02060585       0.44336617
F       10.15435761      10.12161260      10.20214597       0.20896307       0.60427943      -0.18466023
F       -0.00068602      12.22107836       2.02025543       0.14090854       0.09988684      -0.05135881
F       12.12480339       0.03741971       6.08754540       0.54472780      -0.04285360       0.30428877
F       12.20824007      12.19817033      10.29695091      -0.32028052       0.14430239      -0.50878455
F       12.19433599       4.11344904       2.05649176       0.00026919      -0.01310903      -0.06567292
F       12.09401843       4.14440550       6.21251054       0.44236473      -0.32370677      -0.25406767
F        0.08456615       4.07122231      10.24372343      -0.36089598       0.46029483      -0.21792542
F       12.23647697       8.20873091       1.96281385       0.03192616      -0.39397348       0.54776787
F        0.11483293       8.17044877       6.14929908      -0.54533355       0.29646825       0.00212502
F       12.14044700       8.28671621      10.30106700       0.35782171      -0.60996363      -0.55014126
F        4.19296563      12.22155612       2.15706659      -0.45702413       0.09003643      -0.18296330
F        3.92334915       0.09149859       6.14725328       0.34012969      -0.63444644      -0.28512763
F        4.20124682       0.04994930      10.09936609      -0.57893144      -0.11117733      -0.02836904
F        4.30854705       3.91133162       2.19033836      -1.14338423       1.05852626      -0.17980264
F        4.05349615       4.02408322       6.16938954       0.07757635       0.62318861      -0.03667833
F        4.02048164       4.15704780      10.22946410       0.27364225      -0.16592100      -0.13660965
F        4.11099898       8.15403339       2.11207130       0.22744210       0.55936663      -0.10523294
F        4.02091040       8.20031496       6.22015471      -0.15339459      -0.51688455      -0.76656721
F        4.19449691       8.32662763      10.42127903      -0.54847364      -0.78913224      -0.36907954
F        8.10661255      12.20064489       2.08601495       0.22747707      -0.24912756      -0.12699861
F        8.21081346       0.01467829       6.22982019       0.01930204      -0.09271295      -0.58636090
F        8.09240222      -0.00631135      10.40633368       0.52691597      -0.02222384      -0.95152517
F        8.01352265       3.99300426       2.01671510       0.87786821       0.39501529       0.05333702
F        8.16747196       3.96593113       6.04455916      -0.21391013       0.06974092       0.33855567
F        8.04706392       4.07560791      10.16078901       0.41755744       0.18406013       0.39941831
F        8.19700739       8.17973449       2.03268946      -0.05907418       0.07212819       0.26104539
F        8.17893822       8.08853113       6.02494645       0.01013940       0.28843638       0.79649999
F        8.05993897       8.33085398      10.07976564       0.15991747      -1.02764705       0.40978885
F        0.08623342       1.99141826      12.24240610      -0.37077853       0.21432202       0.16078368
F       12.23642797       2.08570869       4.12340852      -0.00872170      -0.11004013      -0.26696870
F        0.14194158       2.12074450       8.24426898      -0.90056539      -0.37324525      -0.25223885
F        0.08288664       6.08180002      12.29156649      -0.83559927       0.51947340      -0.14792945
F       12.17460079       6.18193383       3.99111771       0.15131045      -0.00952928       0.37776370
F        0.02327554       6.11034318       8.13956581      -0.10344499       0.25623434       0.51254710
F        0.05188852      10.07034517       0.07669045      -0.34677060       0.70193070      -0.52079803
F        0.14131682      10.39639870       4.06160584      -0.34739769      -0.80907423       0.07266092
F       12.17810437      10.23138739       8.10373373       0.34593936      -0.11205536       0.06372351
F        4.10035349       2.11677541       0.04784226      -0.30249954      -0.59848211      -0.32941205
F        4.17201764       1.99331705       4.10595187      -0.17055181      -0.15944671       0.54433905
F        4.11429431       2.05548724       7.92034700       0.11450511      -0.17181577       1.58906722
F        4.18815127       6.08617337       0.20129175      -0.26125622       0.04885250      -1.37673524
F        4.10913694       6.12819184       3.95419536      -0.00652186       0.16343269       0.63401836
F        4.01021590       6.07507461       8.19657863       0.29431906       0.40964101      -0.06375282
F        4.14055892      10.37981182      12.22977606      -0.14862622      -0.26647427       0.39417017
F        4.04607248      10.17259828       4.14826434       0.08825312       0.15942382      -0.53144625
F        4.06876001      10.18728637       8.14624221      -0.16995480       0.33699783       0.01034586
F        8.27733249       2.08889376      12.18969314      -0.14902063       0.00122822       0.57392062
F        8.17276408       1.93739451       3.97763015      -0.06240813       0.13498034       0.55973893
F        8.13945556       2.09593768       8.22172846      -0.01929279      -0.59503863       0.03305487
F        8.19182552       6.19237107      12.18958288      -0.21438192      -0.17644658      -0.06556313
F        8.17313159       6.02847453       4.04895130      -0.07705982       0.19972175       0.12969776
F        8.23928311       6.06575215       8.08780836      -0.57257953       0.14417075       0.43812909
F        8.14676898      10.12289888      -0.04695901       0.23661965       0.25110165       0.28911361
F        8.20459031      10.17776790       4.05578696      -0.13835672      -0.03209585       0.07653531
F        8.13687075      10.11760676       8.13276690       0.25259880       0.21825529      -0.23814586
216
Lattice="12.250283036677809 0.0 0.0 0.0 12.250283036677809 0.0 0.0 0.0 12.250283036677809" Properties=species:S:1:pos:R:3:REF_forces:R:3 REF_energy=-109739.69255115438 REF_stress="-0.006950453147059849 0.00016802284358149967 -0.00015608679458390678 0.00016802284358149967 -0.006436284882548156 -0.0003892988288445675 -0.00015608679458390678 -0.0003892988288445675 -0.0038222901520753175" free_REF_energy=-109739.69255115438 pbc="T T T"
Li      -0.21792519      12.36960079      -0.03120392       0.51902397      -0.36742375       0.05404690
Li      12.33015488      -0.16794403       4.14931787      -0.40631246       0.43950952      -0.15346812
Li      12.26510588       0.26801659       8.10600004      -0.25004698      -0.22730917       0.05720782
Li      12.39655142       4.04173588       0.21638777      -0.65597198       0.29652250      -0.47518383
Li      12.09621123       3.99932540       4.14721082       0.10645318       0.49754394      -0.11764057
Li       0.01331238       4.24069273       8.20700362      -0.06680806      -0.55277741       0.06138380
Li       0.08569931       8.05111877      12.43477230       0.04899597      -0.24587897      -0.95270479
Li      12.22024534       8.32788941       4.08633916       0.02135198      -0.34178806       0.01703690
Li      -0.00597936       8.15023581       8.21663234       0.00362680       0.18226679      -0.11479770
Li       4.02028564       0.25037251      12.26290083       0.33194073      -0.78176860       0.15240214
Li       3.91376943      12.13499562       4.12016219       0.55234649       0.41983055      -0.20855940
Li       4.22397109       0.04620684       8.19314855      -0.32746855      -0.16160335       0.08161838
Li       4.26391927       3.99867614      12.19073441      -0.07503302       0.13796617       0.15199076
Li       3.95145130       4.05828601       4.12905590       0.39965253      -0.08203747      -0.05230421
Li       4.02233143       4.06346788       8.24706204       0.27592591       0.08881722      -0.28796407
Li       4.16885707       8.31563913       0.00136713      -0.12261128      -0.18761083      -0.16218210
Li       4.02142491       8.20369604       4.16355270       0.06895879      -0.06165840      -0.25307317
Li       4.06329638       8.00848778       8.21554207      -0.20371853       0.39000884      -0.21394149
Li       8.38207241      12.22351617      -0.04688306      -0.46268698       0.39744036       0.20281376
Li       8.23930762      12.19891760       4.12893340      -0.49183867       0.19046732      -0.13114477
Li       8.18376483      12.31190196       8.28743898      -0.14988452      -0.30167216      -0.05054712
Li       8.11954885       4.18299390       0.02091123       0.39572003      -0.44806461       0.09237922
Li       8.20991919       3.97345280       4.06804949      -0.03641582       0.03987987       0.06289535
Li       8.14494368       4.00503403       8.17869321      -0.13201535       0.20681902      -0.20925052
Li       8.36851135       8.20824090       0.02735611      -0.56662074      -0.05714868      -0.02532202
Li       8.18410784       8.39508221       4.05448843      -0.01213535      -0.51429931       0.30883551
Li       8.11006713       8.30868097       8.16063630       0.53768992      -0.31489792      -0.33171602
Li       0.07609876       2.20289490       2.15996991      -0.16622002      -0.45193566       0.02525800
Li      -0.03541679       2.06330292       6.02664924       0.25973747       0.11324681       0.43911485
Li      12.29646660       2.16855735      10.16446409      -0.29304071       0.08469137       0.09822745
Li      12.16295077       6.04688671       2.14294201      -0.03394705       0.13417482      -0.09408052
Li      12.05284522       6.11558630       5.95587936       0.12701250       0.19072366       0.33967692
Li      12.12844172       6.20816169      10.12380541       0.60306382      -0.20684448       0.71648932
Li       0.09045119      10.11507095       2.01765837      -0.27477971       0.53884306      -0.05084022
Li      12.29487407      10.19435479       6.26673029       0.24011378      -0.13079999      -0.26841263
Li      12.26094078      10.25933029      10.09660978      -0.14533161      -0.20718052       0.29090618
Li       4.03505948       2.08482667       2.15738510       0.26165577      -0.28708449      -0.40010145
Li       4.16058813       1.93941581       6.11602731      -0.14939935       0.21870215      -0.04440424
Li       4.16501048       2.00642486      10.17992395      -0.16651518       0.09998017       0.04394041
Li       4.24789590       6.15896455       2.05286568      -0.11742974       0.10834937      -0.18538065
Li       3.95997749       6.04703371       6.09438106       0.26333136       0.08683618       0.19425070
Li       4.12746336       6.14729003      10.25778675      -0.08909669      -0.08250541       0.03510044
Li       4.25915391      10.12571645       1.98374958      -0.73795212       0.25061700      -0.13514798
Li       4.03197241      10.18106323       6.25084167      -0.10962721      -0.00705742      -0.14646649
Li       4.02157192      10.26598219      10.15755494       0.06707005       0.09571523       0.21219366
Li       8.17778669       1.87015271       2.10751419       0.13162686       0.06684328      -0.54116476
Li       8.31654565       1.99573036       6.13065415      -1.13325537      -0.01445963      -0.00270351
Li       8.22697158       1.87020171      10.28298558       0.04089648       0.56766461       0.14605254
Li       8.07804489       5.99138068       2.07955905       0.57474337       0.09431449       0.21350338
Li       8.06041673       6.08693289       6.09136749       0.23195901       0.25132405       0.05844580
Li       8.03862348       6.30194985      10.20790360       0.13644870      -0.61638779      -0.16473855
Li       8.12637226      10.30167952       1.96827748       0.09950195       0.03877943       0.15574200
Li       8.12263592      10.26560243       6.14994834      -0.31468477      -0.22486303      -0.05440197
Li       8.44584739      10.18117348      10.33163146      -0.47284104       0.33473861      -0.39421002
Li       1.98706941      12.44873762       1.99391732       0.12093415      -0.47918704      -0.01346538
Li       2.03787133       0.05571429       6.23561457      -0.04267388      -0.11034738      -0.17802524
Li       1.86495859       0.02174425      10.11565897       0.62545864      -0.02859195       0.14308446
Li       2.12797217       4.39151821       1.99486059       0.08149060      -1.06729320       0.15664832
Li       1.84234457       4.07731070       6.07953371       0.44941366      -0.10352187       0.17633088
Li       2.02804661       4.14020366      10.36649576       0.02879018      -0.10769477      -0.37452591
Li       2.17911710       8.12366494       1.93559372       0.07202920      -0.01223074       0.24724654