216
Lattice="12.250283036677809 0.0 0.0 0.0 12.250283036677809 0.0 0.0 0.0 12.250283036677809" Properties=species:S:1:pos:R:3:REF_forces:R:3 REF_energy=-109740.48819977349 REF_stress="-0.0046467956905244245 6.151656021836326e-05 0.00024790255610385197 6.151656021836326e-05 -0.0050847568729745635 -0.00015149600650790954 0.00024790255610385197 -0.00015149600650790954 -0.004417256286724562" free_REF_energy=-109740.48819977349 pbc="T T T"
Li      -0.04328393      12.25077305      12.41835692      -0.19407689       0.01633448      -0.38859190
Li      12.36862077      12.17924365       4.16657852      -0.26930532       0.08519376      -0.21665067
Li      12.25518315      -0.06450754       8.15906826       0.12006306       0.14528738       0.23353407
Li       0.02537646       4.31883728      12.24515017       0.12300646      -1.05997045      -0.10304827
Li       0.02085856       4.09259906       4.14140419      -0.10524194      -0.18296973      -0.04053010
Li      -0.01177865       4.22089627       8.18116777       0.21017586      -0.44458719      -0.09703009
Li      12.27735616       7.99142314      12.38601617      -0.03331044       0.51555246      -0.54695180
Li      -0.14631248       8.24300720       4.08167180       0.50860251       0.15267211      -0.04453356
Li      12.35575797       8.10852359       8.26808353      -0.25504726       0.06064461      -0.17363148
Li       4.18365541      12.26461587      12.05438876      -0.16918090      -0.03676703       0.67755330
Li       4.19430091      -0.17873163       4.07611018      -0.13171839       0.39506568       0.16175247
Li       4.10457983      -0.17916161       8.27774900      -0.29709148       0.53593617      -0.71728225
Li       4.01676981       3.91931880      12.40132903       0.03022769       0.41972051      -0.57167759
Li       3.94607342       4.04827753       4.04254440       0.32708032      -0.07805972       0.13110569
Li       3.95810320       4.14765183       8.15060332       0.23499780      -0.08945742      -0.05526946
Li       4.14529978       8.18351983       0.06675669       0.01545027      -0.15651693      -0.18204002
Li       4.22639665       8.22895613       4.05497844      -0.28212406       0.07126532      -0.09676912
Li       4.03329544       8.23787433       8.09633456       0.24371667      -0.36228386       0.09036836
Li       8.20926992      12.27919370      12.17267749      -0.06779253      -0.11576135       0.10561192
Li       8.28120358      -0.05163127       4.20367237      -0.19750932       0.35031126      -0.33794503
Li       8.35806186      12.37401090       8.23007090      -0.20314260      -0.31866484       0.11737729
Li       8.21164648       4.12066446      -0.07556342      -0.24081466      -0.10804984       0.14193415
Li       8.17858296       3.94722495       4.15833408      -0.05295881       0.57045169      -0.31535866
Li       8.05331157       4.07744546       8.13723826       0.19069538      -0.20856377      -0.10016735
Li       8.10315797       8.14397591       0.04839474       0.07556729      -0.17887987      -0.26970589
Li       8.22867437       8.12050437       4.01542227      -0.23071023      -0.25950298      -0.05818458
Li       8.22183871       8.12466947       8.04172280       0.06474063       0.11122464       0.79639123
Li      12.37058082       2.16327748       1.98468061      -0.71866987      -0.35280935       0.14412165
Li      -0.01222088       1.87261502       6.17713172       0.04618858       0.38348235       0.13919824
Li      12.25432563       2.22185833      10.19276225      -0.21906159      -0.53121665      -0.06821060
Li      -0.01775434       6.19923123       2.05489923       0.42818869      -0.24395552       0.19303483
Li      -0.04223775       6.26492950       6.02078136       0.17346667      -0.04762043       0.50230588
Li      12.32513227       6.06272633      10.16748991       0.07788823       0.18160139      -0.04688227
Li      12.23052333      10.11128562       1.97256508      -0.07849449       0.28908173       0.20288524
Li      -0.04725057      10.07854061       6.11023292       0.14389230       0.40037964       0.07400663
Li      12.34804030      10.00530842      10.26115558      -0.33615091       0.20056327      -0.14249105
Li       4.04821628       2.05933383       2.08258487       0.21252302      -0.15467217       0.04169095
Li       4.12381278       2.09864499       6.12641555      -0.23761930      -0.20224812      -0.08683670
Li       4.19981353       1.87145124      10.23166915      -0.41686350       0.79209081       0.05477941
Li       3.94679619       6.13913134       2.13624111       0.55753961       0.06732331      -0.49634607
Li       4.06967878       6.10513681       6.10715810       0.42258189      -0.10678614       0.15787293
Li       4.11641361       6.08024423      10.11238814      -0.18245525       0.15387615       0.36959659
Li       3.89674153      10.19968366       2.01012444       0.39474610       0.01545644       0.11135885
Li       4.14755383      10.26617819       6.20813719      -0.04551830      -0.11946631      -0.36537613
Li       3.90753403      10.31032821      10.05553458       0.59016999      -0.55704904       0.43515098
Li       8.29542616       2.24792694       1.99920944      -0.32097369      -0.30650609       0.07522971
Li       8.35812311       2.14083496       6.13392497      -0.08734346      -0.06457788       0.04063603
Li       8.18979197       2.01232949      10.10557698      -0.04820278       0.17481830       0.25010303
Li       8.08359427       6.10288275       2.13482007      -0.11652137      -0.14093553      -0.03023720
Li       8.10152868       6.11450827       6.18716470      -0.00387568      -0.12826925      -0.50689479
Li       8.06207052       5.96955067      10.08204419       0.45107434       0.47850544       0.49768073
Li       8.15900701      10.30850292       2.04724280       0.16731454      -0.26066949      -0.36099497
Li       8.04564289      10.06022644       6.19986824       0.38986948       0.27325402       0.03908051
Li       8.09139770      10.03858019      10.11167763       0.15550443       0.09578876       0.30667759
Li       2.16215046      12.29671161       2.14383628      -0.24076993      -0.05379133      -0.13958416
Li       2.20012633      12.22221764       6.16132885      -0.14136697       0.29085502       0.10214633
Li       1.94438942       0.03391613      10.19597182      -0.15811642       0.12082616      -0.11022602
Li       1.93838679       3.97434708       2.20952230       0.53023809       0.51211516      -0.69429736
Li       1.85041750       4.04873079       6.06973349       0.42238134      -0.06099891       0.40580081
Li       2.08289112       3.98937817      10.34395524       0.12367546       0.27664016      -0.33361606
Li       2.04738980       8.23449325       2.07796651       0.14051387      -0.10313492      -0.04403683
Li       2.02763010       8.24372997       6.14427646       0.32928427      -0.04908647      -0.17613676
Li       2.17742656       8.14015382      10.27739945      -0.23621419      -0.23827261      -0.18054132
Li       6.19044778      12.32304972       2.18917458       0.02536573      -0.08909824      -0.43105059
Li       6.39758781       0.13106455       6.36823613      -0.68041417      -0.05855533      -0.36061959
Li       6.13665678       0.09103185      10.23705927       0.42829128      -0.44784580      -0.07659239
Li       6.08672463       4.04646449       2.07160861       0.17451568       0.23561692       0.06172190
Li       6.15236165       3.92925378       5.97043269      -0.07908456       0.50552413       0.24612862
Li       6.01656726       4.15327471      10.08755682       0.11407548      -0.36283459       0.26238905
Li       6.18718920       8.35470528       1.86568136      -0.08524801      -0.67300374       0.76058374
Li       6.05805897       8.21810238       6.11309949       0.04522262      -0.22672528      -0.03172793
Li       5.96830114       8.21941316      10.03450084       0.44404649       0.05754695       0.53218544
Li      10.23663051      -0.06267735       2.06174714      -0.23165717       0.11275342      -0.07730793
Li      10.24291491       0.03541189       6.15511796      -0.05891503       0.05548826      -0.04594536
Li      10.26620270      12.24445190      10.13955927      -0.00441407      -0.01302084       0.36091038
Li      10.28613391       4.05646072       1.94277239      -0.38337719       0.21393584       0.09717124
Li      10.26149859       4.23710340       6.11252373      -0.30160917      -0.57461945       0.21119273
Li      10.18704137       4.02655778      10.21902686      -0.12010986       0.03027448      -0.02233569
Li      10.22768781       8.13691975       2.08859976      -0.42578908       0.08979629      -0.19122323
Li      10.06080220       8.13992107       6.01999734       0.19643254      -0.07390199       0.34876089
Li      10.26143734       8.05560237      10.22004363      -0.35943457       0.09019070      -0.12313630
Li       1.81535719       1.91344521      -0.03538739       0.35782583       0.75101923       0.07580461
Li       1.89894087       1.96913500       4.03836705       0.43319257      -0.09511488       0.37831469
Li       2.08765648       2.01764612       8.29145707      -0.23105090       0.05899139      -0.31547950
Li       2.05726353       6.22424631      12.17836162       0.55245165      -0.28023225       0.06545206
Li       2.13483232       6.27602825       4.22123928      -0.29710820       0.00807892      -0.28439692
Li       2.18008487       6.10773387       8.07494557      -0.14611965       0.07966769       0.41770913
Li       2.02125995      10.31749463      12.24698771       0.04251345      -0.25417540       0.07892027
Li       2.09759146      10.25952629       4.21185556      -0.05429527      -0.22233949      -0.32264876
Li       2.12851118      10.10625075       8.16665119      -0.56713316       0.22309719      -0.21999901
Li       6.10827288       2.04578502       0.07807105       0.24523259       0.24159551       0.03869022
Li       6.28938106       1.91644653       4.11692812      -0.34611754       0.25244633      -0.17130875
Li       5.91481641       2.08518193       8.20292427       0.40972329       0.12342941      -0.08808111
Li       6.11267073       6.02568147      -0.08754052      -0.05224996       0.23930928       0.47673112
Li       6.05152957       6.26954785       4.15343396       0.42367898      -0.51770088      -0.39473324
Li       6.23088596       6.25833885       8.20147874      -0.41689178      -0.20012310      -0.29848657
Li       6.09652486      10.21613579       0.03857982       0.21367436      -0.05266391      -0.16991598
Li       6.32135430      10.30210828       4.09642115      -0.40124456      -0.46951480      -0.19827731
Li       6.17171709      10.37640624       8.14725899       0.05800692      -0.68670746       0.37499822
Li      10.24606323       2.04471924      12.29462906      -0.45501841      -0.01057546      -0.23128796
Li      10.33402026       2.01693560       4.03822005      -0.27548573      -0.03188836       0.14178657
Li      10.25574095       2.08684797       8.15953377       0.01297199       0.05238237       0.02783656
Li      10.31729863       6.09525083       0.01816962      -0.68368924       0.13021403      -0.23506928
Li      10.46580881       5.92001053       4.10843867      -0.90519955       0.61086943      -0.19751472
Li      10.32782162       5.97655784       8.19411632      -0.50665465       0.39146588       0.00564383
Li      10.27084555      10.11759451      12.12308835      -0.34631680      -0.05795292       0.14164953
Li      10.13340963      10.27891849       4.15409548       0.27728499      -0.11541168      -0.09688457
Li      10.36976659      10.13291962       8.04212706      -0.52141175      -0.08485360       0.61714472
F        2.07571246      12.37597094      12.18899487      -0.19629318      -0.86840809       0.28157128
F        2.09432064      12.30455179       4.06959303      -0.25266154      -0.48301361       0.29209583
F        2.01658034      12.25322310       8.14576445       0.12498132      -0.05006144       0.21922974
F        2.04957035       3.95571439      12.17396377      -0.34812737       0.22447350       0.44989189
F        1.90703831       4.16287893       4.05549295       0.36836478      -0.33625967       0.59591435
F        2.03066817       4.21371761       8.17332759      -0.09144643      -0.48321467      -0.02452550
F        2.00066722       8.16997101      12.15397131       0.02114655       0.18472065       0.55015643
F        2.02509429       8.26968832       3.98444131       0.06706003      -0.17716649       0.35011046
F        2.00967118       8.11738055       8.07863290       0.45226604       0.21399240       0.14987860
F        6.18193383      -0.07003364      12.17289800      -0.41053755       0.47732093       0.20240675
F        6.14687352      -0.11320242       4.05140136       0.20978479       0.50460702       0.31497916
F        5.96417280      -0.06810300       8.27754075       0.63640742       0.63188203      -0.42540316
F        6.12571728       3.95398710       0.13421533      -0.05827971       0.69414643      -0.44625455
F        6.24548830       4.06457041       4.03564749      -0.67198378      -0.18393261       0.37553738
F        6.11569655       4.03112714       8.14107260      -0.11973139       0.10488610       0.11147583
F        6.09169825       8.14264063       0.11649774       0.07430694       0.23087272      -0.77443710
F        6.11423877       8.10996913       4.12669160       0.13054339       0.66150191       0.02063850
F        6.14078513       8.21570132       8.20653811       0.02328185       0.02031429      -0.74211088
F       10.15385535      12.30932940      12.20730904       0.33422027      -0.28619695       0.13718609
F       10.13267461      12.33615752       4.15654553       0.40646801      -0.68243994      -0.21366664
F       10.18489757       0.00466246       8.27872903       0.54006408      -0.10154032      -0.72670174
F       10.20892037       4.19675096      -0.09596014       0.30427695      -0.51391853       0.56073934
F       10.17824566       4.13162846       4.19600370       0.74462824      -0.37921895      -0.34502996
F       10.08852459       4.00866012       8.05775842       0.31267366       0.62615926       0.44956073
F       10.25294789       8.11702529      12.13155329       0.27057081      -0.24446717       0.45604325
F       10.20404476       8.23386849       4.09720516       0.13216267      -0.17945143       0.09299603
F       10.20035742       8.12327293       8.15503792       0.19618983      -0.05770635      -0.08376191
F        1.93925656       2.05206941       2.06385418       0.31546870      -0.16901069       0.01951390
F        1.93610823       2.04857808       6.14039312       0.16836252       0.07047060      -0.09400313
F        2.01160673       1.99510560      10.33209697       0.13660400       0.23190373      -0.67175649
F        2.08635795       6.03801751       1.95513292      -0.41243092       0.43359109       0.08576429
F        2.21078408       6.13793081       6.21861118      -0.72907461       0.11339053      -0.68238543
F        2.12309655       6.10155972      10.20579655      -0.24914067       0.14425303      -0.19063779
F        1.98453360      10.30611412       1.98443560      -0.01987823      -0.12523124      -0.02073312
F        2.11996048      10.30868668       6.12146643      -0.29492147      -0.36776494       0.07086012
F        1.97731818      10.12341340      10.07704608       0.49360501       0.43470490       0.52548052
F        6.13412098       2.07556545       2.13174525       0.14419698      -0.51323693      -0.07005459
F        6.11735034       2.02514329       6.17337088       0.03446512      -0.16162392      -0.12575086
F        6.11676232       2.07730500      10.27577017      -0.36059439      -0.42362601      -0.37505556
F        6.03799300       6.18502090       2.11420285      -0.01083154      -0.29415323      -0.04810663
F        6.12506802       6.13802882       6.07490311      -0.20235276       0.14264635       0.30651766
F        6.18819373       6.15754352      10.17740039      -0.42549238      -0.44986746      -0.06217956
F        6.23056745      10.21051291       2.07946104      -0.33485533       0.20039538       0.10222166
F        6.09182075      10.21645430       6.03920578       0.61703082       0.08285097       0.51431499
F        6.03352165      10.22690379      10.12665972       0.02501632      -0.04457007       0.21035635
F       10.20660507       2.15280349       2.07122885       0.19549229      -0.10006759       0.00825993
F       10.29850669       2.04822282       6.11363850      -0.13652249      -0.09437131       0.03445715
F       10.15501913       2.02382026      10.14488814       0.16591020       0.27670958       0.16895593
F       10.27831823       6.04089632       2.03211370       0.51814516       0.20400521       0.13183691
F       10.19932840       6.09250676       6.10182923       0.39751337       0.56620371      -0.06160672
F       10.19227224       5.99577853      10.32690285       0.14192412       0.30812049      -0.87912856
F       10.23130164      10.09129315       1.85665290      -0.02136098       0.44849064       0.55316796
F       10.18214125      10.16729391       6.13921709       0.16337587       0.13573831      -0.06623830
F       10.13654570      10.15301008      10.17642037       0.48970259       0.10849027       0.24569333
F       12.14288481      12.25567316       2.09826523       0.29063724      -0.06510779      -0.36337375
F       -0.01902959      12.25236558       6.18089256      -0.09450090      -0.45626925      -0.03205754
F       12.30344927       0.15800783      10.20767084      -0.25934563      -0.53379573       0.15399597
F        0.12513542       4.07838873       2.11013575      -0.95102458       0.27817228      -0.05012700
F       -0.09699284       4.16086988       6.21685939       0.56220976       0.26056382      -0.67497886
F       12.25175307       4.10500859      10.14131106      -0.03714807       0.08184670       0.15045222
F       -0.07344535       8.14928029       2.09278935       0.31689952      -0.16087932      -0.39596274
F       12.41186427       8.22702058       6.09405030      -0.60406295      -0.28459335      -0.06388111
F       12.34448771       8.13170113      10.16452535      -0.30997451      -0.25986988       0.16674555
F        4.01970987       0.09578129       2.15923489       0.40307724      -0.41177220      -0.38354611
F        4.15572477      12.15622536       6.20329832      -0.14367684       0.32069370      -0.19717019
F        3.99545431      12.22684825      10.11710450       0.09309270       0.08033977       0.61482970
F        4.04647674       4.00453177       1.94723149      -0.22958460       0.30013824       1.17844508
F        4.02634953       4.05116860       6.18504540       0.12179367       0.02282060      -0.51955799
F        4.01168594       4.09051651      10.21271796       0.52450607      -0.09512850      -0.19124817
F        4.02409547       8.22318624       1.94780725      -0.15638864       0.06253360       0.48018128
F        4.10930844       8.28142409       6.08376006      -0.15538128      -0.27772234       0.21283669
F        4.08969574       8.15785548      10.08072116      -0.24192024       0.25962511       0.12584264
F        8.21214874      12.21935107       2.06457695       0.04781943       0.14753196      -0.01919508
F        8.25270942       0.12652092       6.12664830      -0.27382531      -0.55147566       0.34142142
F        8.10128368       0.01733538      10.17417857       0.10561346       0.13624610       0.04758521
F        8.22316174       4.12981542       2.14688660       0.12847005      -0.16528851      -0.17785452
F        8.11976935       4.12436404       6.09235976       0.09375373      -0.31434667       0.21138273
F        8.06652962       3.96947146      10.11820703       0.17716212       0.54212173       0.04190821
F        8.22133645       8.05946121       2.07387492       0.01038751       0.23361352      -0.08306540
F        8.18799118       8.19035548       6.20534412      -0.26864069      -0.01790748      -0.41332772
F        8.10072016       8.10166343      10.26168234       0.10209439       0.04813182      -0.22161804
F       12.05543003       2.17957036      12.31312699       0.91207699      -0.33145042      -0.08619958
F       -0.00098002       1.87235776       4.09143528       0.05937603       0.75312857       0.02166000
F       12.20417297       2.13370530       8.20527633       0.29528194      -0.18624994      -0.09426050
F       12.36898828       6.07239180      -0.12054524      -0.33097605       0.63455829       0.60029268
F        0.15856031       6.33211005       4.07352537      -0.67812357      -0.76492350       0.28235855
F       12.19621029       6.17279512       8.18491636       0.11134599      -0.20426129      -0.13085784
F       12.29805914      10.11856228      12.28691138      -0.02214028       0.44201814      -0.36705557
F       12.19143268      10.23641001       4.08528564       0.05363424       0.02371380       0.14251702
F       12.26020577      10.14084555       8.22090769      -0.00230782       0.18532152      -0.34554572
F        4.15440174       2.10891073      12.37180584      -0.05329897      -1.13914834      -0.59683866
F        4.04498221       1.99375806       4.13922363      -0.01523301       0.45358039      -0.01599663
F        4.03339344       2.04507450       8.15996253      -0.02240845      -0.03738821       0.27938815
F        4.09143528       6.30220711      12.16130923      -0.00884974      -0.64966763       0.04087411
F        3.97841417       6.14253692       4.07988326       0.28570587      -0.11399911       0.11957558
F        4.21070404       6.15562022       8.13689525      -0.27232096      -0.00637634       0.03325079
F        4.09609039      10.23438871      12.29940667      -0.31683344       0.26441276      -0.30469938
F        4.01351123      10.10965633       4.00184896       0.20521208       0.62119421       0.06257114
F        4.04527621      10.17743714       8.15278387      -0.04104792       0.00730528       0.00918501
F        8.23087942       2.17061540       0.00650613      -0.03280419      -0.47030439       0.13913216
F        8.19689714       1.99857243       4.11745488       0.01870760       0.11933852       0.08080926
F        8.21121772       2.02149271       8.10138168      -0.25507426      -0.08678039       0.07931905
F        8.13388168       5.98546379       0.04573888      -0.14138419       0.39070021      -0.10738289
F        8.15652020       6.18482490       4.15587177       0.18990065       0.05072581      -0.05580194
F        8.16341711       6.15994457       8.14363290      -0.02537962      -0.28286686       0.01099661
F        8.06019623      10.07806285       0.07680805       0.30490738       0.38405545      -0.32683401
F        8.24090015      10.16595863       4.07129582      -0.14034367       0.18264860       0.24926691
F        8.21739186      10.20884687       8.22953189      -0.44094856       0.10511878      -0.75528315
216
Lattice="12.250283036677809 0.0 0.0 0.0 12.250283036677809 0.0 0.0 0.0 12.250283036677809" Properties=species:S:1:pos:R:3:REF_forces:R:3 REF_energy=-109740.2736308007 REF_stress="-0.004968150855844233 -0.00036450857323418233 -0.00010375181051753804 -0.00036450857323418233 -0.005289506021164041 2.2035782764786838e-05 -0.00010375181051753804 2.2035782764786838e-05 -0.0034219734318483566" free_REF_energy=-109740.2736308007 pbc="T T T"
Li      12.18837011       0.09274077      12.19933411       0.26200030      -0.26209054       0.41370515
Li       0.27356475       0.13192330       4.12166898      -0.07756684      -0.39672790      -0.06518672
Li      12.22361417      12.20679453       8.13046385      -0.06555439       0.15999229      -0.01883462
Li      12.09014734       4.11206476      12.17692834       0.26468710       0.03955282       0.03471606
Li      12.16214225       4.06793924       3.91468820       0.01107323       0.26048797       1.11465961
Li      12.15011247       3.95862996       8.08227124       0.23749486       0.16410863       0.14310734
Li      12.02591910       8.26895330      12.14653539       0.57574687      -0.17771079       0.38662372
Li       0.02780569       8.18334832       4.04402669      -0.13006774      -0.09152484       0.09325803
Li      12.19726381       7.97249645       8.21497855      -0.01803809       0.70432440      -0.23468901
Li       3.90775454      12.14282355      12.25493814       0.40633997       0.13294814      -0.02444579
Li       4.13227772      -0.00631870       4.14832559      -0.07299053       0.17966895      -0.11105443
Li       3.93167934      12.19160418       8.19276879       0.66125251      -0.13202306       0.10434385
Li       4.02903234       4.15005288      12.17447829       0.14971354       0.14373469      -0.01595884
Li       4.13284124       4.07211658       4.00688383      -0.00058801       0.24159654       0.33443187
Li       4.13298824       4.11284878       8.19676238      -0.35382622       0.31102789       0.05850828
Li       4.03410396       8.14586246       0.07656672       0.22878422      -0.36483054      -0.15524424
Li       4.07771496       8.31739092       4.10117426       0.11933210      -0.96189417       0.00725103
Li       4.11295903       7.94789788       8.02716946      -0.16399190       0.60737376       0.43178207
Li       8.08085020      -0.01233358      -0.04675443       0.20760347       0.05360056      -0.04358097
Li       8.22174071      12.19959137       4.23736065      -0.46948961       0.23567272      -0.34346030
Li       8.06946969      12.14023874       8.16367437       0.23953220       0.12914831      -0.10638916
Li       8.20835115       4.04177263       0.05083132      -0.40170582       0.15456444      -0.16344760
Li       8.04800720       3.90379770       4.09278281       0.54007102       0.22424930       0.11296939
Li       8.23314572       4.01495676       8.24336246      -0.38431667       0.22624808      -0.21205045
Li       8.20939242       8.24352171      12.26339084      -0.34286561      -0.15059697       0.16323934
Li       8.34039695       8.15576068       3.94403988      -0.38120564       0.21919529       0.11028027
Li       8.09279423       8.05821168       8.19160501      -0.06542326       0.33416216      -0.30116437
Li       0.07730786       2.16756508       2.08650496      -0.00307427      -0.45317596       0.07106941
Li       0.21195317       1.95057582       6.06576440      -0.44512789       0.68370467       0.51246817
Li      12.24404764       2.06650025      10.20158245       0.04473488       0.08111573      -0.39445582
Li       0.23404411       6.03980605       1.95674996      -0.85493320       0.35709666       0.26973263
Li      12.25224308       6.02928305       6.24035543       0.08305743      -0.00480256      -0.49227010
Li       0.03712571       6.12528852      10.15770194      -0.31635265      -0.14717174       0.04334803
Li       0.10563297      10.27038004       2.16414725      -0.11098630      -0.02574291      -0.01429379
Li       0.10173248      10.18916067       6.03876477      -0.43812652      -0.04558900       0.07245394
Li      12.21299318      10.21646655      10.22733255       0.13760287       0.00291435      -0.15264151
Li       4.11686687       2.09387963       2.00221076      -0.33179932      -0.31967040       0.16372374
Li       4.20270460       2.16221171       6.13866583      -0.25497013      -0.13846316      -0.00642082
Li       4.03465522       2.12002173      10.29080126       0.03411648      -0.29716193      -0.18208681
Li       4.07581617       6.08292704       2.00426881       0.11134959       0.06435805       0.32934932
Li       4.09212130       6.26779606       6.12134393      -0.18837573      -0.39134016      -0.35769753
Li       4.04935556       6.24759535      10.18054872       0.11845252      -0.42742919       0.00410040
Li       4.29761979      10.02871871       2.18824356      -0.27012755       0.46202518      -0.30283841
Li       4.01348673      10.20378750       6.16713549       0.23886551       0.20245381       0.09555325
Li       4.10151726      10.10440096      10.35479674      -0.08200354       0.13864725      -0.71242620
Li       8.21069095       1.94126560       2.11629765       0.02612498      -0.01873923      -0.10029539
Li       8.03101605       1.96963726       6.13276119       0.10858849       0.22928172       0.08381102
Li       8.09185096       2.07725599      10.28216481      -0.05824886      -0.18433190      -0.27342242
Li       8.27255488       6.05168882       2.06101212      -0.18354206       0.08916971      -0.10603795
Li       8.10038941       6.22329079       6.03719674       0.12894314      -0.05987585       0.20341848
Li       7.97715156       6.24599056      10.14411637       0.08961092      -0.57248697       0.13458722
Li       8.16031779      10.35553176       2.02329350       0.01781055      -0.36047432       0.20369770
Li       8.24670679      10.17278204       5.95717789      -0.21756315      -0.18813302       0.64818899
Li       8.18458560      10.09781030      10.14641943      -0.06900712       0.17900123      -0.04172129
Li       2.12552211      12.16437180       2.08885701      -0.02520144       0.24767745       0.07557603
Li       1.95645595      12.12125081       6.28109987       0.76021735       0.07047445      -0.22378033
Li       1.99963820      12.11230810      10.28743244       0.18843461       0.11627017      -0.23078171
Li       2.07152286       4.06145884       2.01985117       0.25147780      -0.17785349       0.20600090
Li       2.10625241       4.19675096       6.30214586      -0.12068861      -0.04894481      -0.07953759
Li       1.92794954       3.84454308      10.32610658       0.16492290       0.64236441      -0.57035347
Li       2.07053059       8.03647968       2.01797687      -0.23262673       0.20754870       0.21097444