216
Lattice="11.704299689364166 0.0 0.0 0.0 11.704299689364166 0.0 0.0 0.0 11.704299689364166" Properties=species:S:1:pos:R:3:REF_forces:R:3 REF_energy=-109732.62528455177 REF_stress="-0.07976035203237637 -4.498972314477313e-05 0.00029564675209422343 -4.498972314477313e-05 -0.07875496944373298 -0.00040949829637895545 0.00029564675209422343 -0.00040949829637895545 -0.07794699074235745" free_REF_energy=-109732.62528455177 pbc="T T T"
Li       0.02809032      11.66075969       0.04389112      -0.24279236       0.07761980      -0.21330412
Li       3.93837980       5.72422185       9.81206556      -0.33247706       0.31668355      -0.21156579
Li       5.90844753       3.86967556       9.88182318       0.20596053      -0.06561121      -0.55577146
Li       5.88960360       5.77864684       8.03195862       0.08982586       0.19963279      -0.62137444
Li       3.91134287       7.79459542      11.63945787      -0.64780307       0.13555730      -0.07888196
Li       4.01223393       9.76934486       1.88954214      -0.33743364       0.12415729       0.10916133
Li       5.70490975       7.75281107       1.91096101       0.51012409       0.26666196       0.26749089
Li       3.92012109       3.87810266       7.73759548      -0.08246736       0.09095072      -0.16386129
Li       5.78812733       9.82295056      11.59018277       0.31253610      -0.28118176       0.46405481
Li       3.98145163       9.76255637       5.83857286      -0.19377170      -0.25760114       0.23804430
Li       5.85729974       7.79237160       6.06867939      -0.22716519       0.06230709      -0.76855878
Li       5.88609231       9.72814573       3.87892196       0.06738861      -0.01675022       0.02308748
Li       3.87213347       7.62605351       7.79646811       0.15687997       0.60498469       0.14817139
Li       3.75825063       9.81066104       9.70789729       0.23232000      -0.60590103       0.64156017
Li       5.74072491       7.77481515       9.79778631       0.29413497       0.36392191      -0.47632309
Li       3.91871658       7.81320526       3.96483152       0.06660263      -0.24117282      -0.03075759
Li       5.78239222       9.91459522       7.68258527       0.25960737      -0.80546363       0.58543505
Li       5.92565285       3.94060362       5.85121350      -0.09362286      -0.11081660       0.54892307
Li       4.10305930       3.97536539       3.93346400      -0.59776966      -0.45063417      -0.03288852
Li       6.01226466       0.04588085       1.97112111      -0.40125613      -0.17303164      -0.25222111
Li       5.85554409       1.87175161       0.00035113       0.20375016      -0.05895822       0.04246691
Li       4.05858296      11.69739415       3.95418061      -0.30855886      -0.04981795      -0.51937415
Li       3.90069196       1.82235946       5.74552367      -0.09933380       1.03194645       0.20438316
Li       5.83424227       0.08906972       5.87064264       0.74994837      -0.52118704      -0.42617526
Li       5.88773092       1.94935111       3.99748652       0.19301683      -0.08067839      -0.68764874
Li       3.97431200       5.87345167       5.86443936      -0.63559753      -0.10196969       0.12236111
Li       3.84076594       0.24216196       7.81835515      -0.13958416      -1.10407335      -0.19857298
Li       5.68548062      11.65631206       9.62865918       0.80870450       0.18044053       0.51677785
Li       5.86549275       1.95707595       7.75714166       0.36198613       0.45625614      -0.00141231
Li       4.05413533       3.71705150      11.61405954      -0.91017438       0.51186679       0.32523941
Li       3.79160788       5.85390549       1.87924236       0.15585719      -0.00628275       0.09122068
Li       5.84079667       3.83713761       1.83008430       0.18909512       0.13757356       0.58854094
Li       5.74751341       5.88925247       0.08731408       0.38653759      -0.26074226      -0.00267138
Li       3.69329177       1.93963654       9.71187675       0.35800400      -0.09747721      -0.02037471
Li       7.84960563      11.67141061      11.69669189      -0.08790447      -0.03804153       0.14405454
Li       7.87991977       2.06498959       1.94092402      -0.26033268      -0.44097787       0.25689691
Li       9.73118885       0.20552750       1.89562838       0.14218895      -0.75266320       0.14843236
Li       9.89809216       4.01199985       9.79333868      -0.54939358      -0.18835773      -0.26084484
Li       9.64118278       6.01870203       7.89653987       0.01132725      -0.46899184      -0.30227817
Li       7.63167157       7.67556269       0.03511290       0.50824976       0.47648532       0.03392442
Li       7.75199177       9.70380079       2.00529767       0.47044220      -0.07079533      -0.40231260
Li       9.68214783       7.81203483       2.00623401      -0.08660530      -0.11610896       0.08773504
Li       9.72463444       9.63650106       0.07081101       0.06894953      -0.00024914      -0.18726707
Li       7.74567145       5.90025452       9.88954802       0.26738547      -0.14303818      -0.30344211
Li       7.50034933       7.83556047       3.94165701       1.32198000      -0.20511027      -0.39857935
Li       9.66365504       7.84363644       5.73826701       0.35751035       0.17999008       0.50207063
Li       9.74488288       9.76384384       3.91590755      -0.12820549      -0.07026285       0.04929088
Li       7.86271445       7.96852131       7.77153795      -0.49377548      -0.35984851       0.44562386
Li       7.80735311       9.91401001       9.79638180       0.05628068      -0.86487822      -0.06639977
Li       9.76208820       7.74590553       9.61157090      -0.19515007       0.55877476       0.65769667
Li       9.78011282       9.92068146       7.85779864      -0.33263724      -0.80141131      -0.17388474
Li       7.73466941       9.77507997       5.94203887       0.48456064       0.20865736      -0.35504106
Li       7.93165277       3.95301018       7.77633671      -0.36453589      -0.22081097       0.49754986
Li       9.63673515       5.81961189       3.94411491       0.51575250       0.34497237       0.03244269
Li       9.69233057       3.95066932       5.88691161       0.52974444      -0.00514092       0.02163378
Li       9.83605937       2.02425863      11.55073928      -0.32312493      -0.43322934       0.67497654
Li       7.84679660       0.00105339       3.83982960       0.11234924      -0.17793191       0.20350179
Li       7.95166712       1.94150923       5.75055652      -0.56312379      -0.08945125       0.56420288
Li       9.79380685       0.08310053       5.97328935      -0.13884188      -0.30796931      -0.24884808
Li       9.81089513       1.96831208       3.92971862      -0.30798962       0.02744164      -0.10255513
Li       7.67965920       0.12558714       7.78160365       1.26312745      -0.26927086       0.06175738
Li       7.81589725       1.94057289       9.78889105       0.29279414       0.16638071      -0.26646142
Li       9.72943320       0.05934080       9.81569389       0.23909305      -0.42267470      -0.07655074
Li       9.87327905       1.93600821       7.83146397      -0.42304417      -0.11338488      -0.08150706
Li       7.87781299       3.86827105      11.69107383      -0.04580446       0.26031777      -0.03859277
Li       7.79658515       5.68009664       2.02952557      -0.05375045       0.76014074      -0.02141060
Li       9.81897110       3.85656675       1.89516021      -0.19047864       0.26259808       0.21900477
Li       9.68378643       5.94379451       0.10147628       0.09637960      -0.37403149      -0.13717092
Li       7.79237160       3.89835110       4.04992178       0.64499594       0.01502321      -0.27589351
Li       7.71500618       6.05720918       5.88644344       0.14973411      -0.82533980       0.14999456
Li       3.93720937       1.86905962       2.00365906       0.14735044       0.49260665      -0.07304967
Li       3.97688695       0.03827306       0.03405951      -0.36422222      -0.54195075       0.12784013
Li       5.80755646       5.66464696       3.91309852       0.38132957       1.21202266      -0.09743967
Li       1.83230812       9.83009018      11.63173303       0.26453618      -0.36886537       0.26402633
Li       1.75880511       2.04380481       7.63986458       0.77159654       0.00847590       0.12958283
Li      11.66789932       7.81308821       3.81817664      -0.03485387      -0.02582442       0.26601636
Li       0.01626898       1.95777821       5.73323416      -0.00666353       0.12766299       0.18819318
Li       1.95496918      11.64437367       5.76670846       0.05149148       0.27727291       0.13153121
Li       1.97334493       2.09343104       3.81185632       0.09646291      -0.52089959       0.24316054
Li      11.65525867       3.78786251       7.82139827       0.16096674       0.42958146      -0.32209829
Li       0.02352564       3.90677819      11.68416829       0.29667548      -0.04050516       0.11484115
Li      11.67082539       5.85027716       9.66002671       0.15133179      -0.01732898       0.25868897
Li       1.96234289       3.85211911       9.67910471      -0.18106094       0.24098770       0.12760385
Li       0.08298348      11.57637169       7.96863836      -0.36732142       0.53721221      -0.81545005
Li       1.98891165       5.86151328       7.84340235      -0.11783212      -0.12159210      -0.62275152
Li      11.65982335       3.90045787       3.76164488      -0.08348321       0.56778648       0.63932743
Li       1.98025046       7.89466718       1.89902262      -0.55766996      -0.06297712       0.08426765
Li      11.62037986       9.84015588       1.87889123       0.34444632      -0.35505032       0.31009381
Li      11.61476180       1.94291375       9.86777803       0.36080419      -0.43126836      -0.30578953
Li       0.05781924       7.58778045       0.01697123      -0.59253746       0.95460304       0.02552154
Li       2.03806970      11.65935518       9.65909036      -0.80767632      -0.12423545       0.28502144
Li       1.82598779       7.88881503       5.87532436       0.37726491      -0.45930161      -0.08148083
Li       2.10572056       9.69947020       3.91403486      -0.51456567       0.25538613      -0.15394892
Li      11.69727711       9.85478625       5.79971458      -0.17727011      -0.28094933       0.59206052
Li       2.01442702       1.85794053      11.64051126      -0.52254098       0.22259377       0.16365406
Li       1.83909661       7.71746409       9.70684390       0.28827234       0.44049168       0.09225144
Li       2.02812105       3.82274132       1.92781520      -0.09015805       0.45140987      -0.35217326
Li      11.65795066      11.58936347       3.90701228       0.18635099       0.41948602      -0.29611884
Li       1.86847440       5.87860156       0.04529564       0.17952162      -0.22684792      -0.34873980
Li      11.63781927       9.79287051       9.68530799      -0.04997942      -0.31747930       0.47168816
Li       0.01732236       2.01349068       2.03701632       0.02241436      -0.41051467      -0.58928219
Li       2.00096707       5.96298956       3.86604723      -0.34493046      -0.33463885       0.15979818
Li       1.82095495       3.99011281       5.51530010       0.30360743       0.15805034       1.25480941
Li       2.02355637       9.69080901       7.80419295      -0.21430479      -0.01653014       0.06711222
Li      11.48343955       5.93173908       6.01015789       0.62664160      -0.45496956      -0.69731969
Li      11.61078233       7.72987064       7.73197742       0.25693394       0.45898819       0.13777616
Li      11.59837578       5.78976593       2.08359943       0.06400478       0.33503660      -0.35980352
Li       2.04450707       0.08216418       1.96304514      -0.27611694      -0.47943232       0.06152598
F        9.78678427      11.66005744       7.95002852      -0.23008519       0.80463111      -0.93725812
F        9.85806346       3.84591583      11.67281512      -0.45499424       0.27738706       0.01186153
F        9.75096911      11.67328330       3.87330390       0.19362412       0.51611348      -0.04014572
F        1.77214802       5.86490753       1.89796924       0.82177136       0.12716856       0.11981366
F        1.80749500       1.78174554       9.69513960       0.85555000       0.90344400      -0.01164838
F        9.67056058       5.76787889       2.01114982       0.58918063       0.18981632      -0.23080022
F       11.61827309       0.01755645       9.68191375       0.27792468      -0.09722652       1.04812177
F        0.03780489       1.89317047       7.72799796      -0.72707404       0.13163894       0.00047771
F        7.83403891      11.68920114       5.82885829      -0.11097344       0.05621974       0.15541804
F        7.97449051       1.96304514       7.71090968      -0.75584879      -0.25048484       0.39819549
F        7.89373084       0.00795892       9.80609637      -0.60286893       0.37044660      -0.05677099
F        7.78792397       1.91622795       3.92246195       0.36676812       0.38444137      -0.35211901
F        2.01161799       3.89858518      11.66204717      -0.07556215      -0.22702815      -0.18640601
F        9.70028950       1.92500617       9.73856256       0.44514640       0.40194159       0.27575647
F        9.73118885       1.97158928       5.78613759       0.76136844      -0.23020218       0.25849717
F        7.91210659       3.87740040       1.92559138      -0.72158679      -0.05565590       0.28165818
F       11.69458512       7.78757284       9.62280703      -0.28034049      -0.21104540       0.43877007
F        1.88486042      11.63395685       7.76381311       0.98074036       0.25441014      -0.03627235
F        9.75787465       9.64094870       9.74570218      -0.38877805       0.32689648       0.33301288
F        9.72931616       7.90812713       7.72027312      -0.06173604      -0.29504797       0.21322287
F        1.86086661      11.70184179      11.57122180       0.64665558      -0.09917876       0.59666820
F        7.78991370       9.72756051       3.83222180       0.07950160      -0.06844739       0.55472733
F        7.81542907       7.81332230       5.80006571      -0.48637096       0.69954781       0.28165072
F        9.72311288       9.89013324       5.86736543       0.05636064      -0.39073338       0.12306971
F        9.78444341       7.80173504       3.98320727      -0.25458704      -0.00673552      -0.61465384
F        2.05667954       1.95684187       1.87362429      -0.39998935       0.09816883       0.30791120
F        0.08146193       0.02703693       1.94665912      -0.14499788       0.04530747       0.41346193
F       11.66286647       1.87292204       0.08836746       0.31398235       0.47724020      -0.38769999
F        7.77727306       9.70181106       0.02797328       0.10391833       0.08508860       0.04982104
F        7.73771252       7.68633065       2.00482949       0.13570360       0.54222020      -0.20642745
F        7.77621967       5.77759346       0.08895268      -0.03315695       0.06544435      -0.29507394
F        9.80609637       9.72241062       2.02519498      -0.57499868       0.27023631      -0.31082015
F        2.09401626       0.05126483       3.88723201      -0.19229203      -0.00617502       0.16374713
F        7.74906570       6.05358084       7.84270009       0.17819622      -0.83939036      -0.06891354
F        7.84199783       3.94516830       9.72931616       0.03111678      -0.01745548       0.29504180
F        9.74359541       5.90891570       9.80796905      -0.16300588      -0.31330229      -0.36578956
F        9.76524836       3.83070025       7.85288283       0.41923277       0.46029509       0.06269429
F        1.99570014       2.07470416       5.76542098      -0.11539240      -0.46437440      -0.04184033
F        0.12734278       0.07010876       5.75336556      -0.63504937      -0.05961745       0.30856735
F       11.66263238       2.09319696       3.85211911       0.54314683      -0.86754883       0.04259984
F        7.84363644       5.83751947       3.95827711      -0.82639961      -0.13230563       0.24599081
F        7.88073907       3.92960158       5.99552752      -0.60997031       0.18498547      -1.01059164
F        9.68706364       5.88702866       5.98815381      -0.17823736      -0.00834991      -0.29808856
F        9.75026686       3.98566517       3.97641878      -0.27601281      -0.61114736      -0.30365191
F        9.72170836       7.71816634       0.08555843      -0.09904224       0.48915829      -0.31510129
F        0.03803897       3.88231621       1.91915402      -0.13816157       0.08273373      -0.22056774
F        1.94876590       3.95429765       3.77592412       0.22932286       0.05058903      -0.15073247
F        7.75363037       2.02882331       0.08883563       0.42066744      -0.47718852      -0.55408302
F        5.99529343       3.89963857       3.99655017      -0.50464533      -0.18817544      -0.46320583
F        7.67170027       7.73665914       9.75424632       0.48844609       0.36545532       0.38331703
F        2.04509228       9.75998142       2.02718471      -0.33354356       0.31997070      -0.33892616
F       11.58351132       7.83158101       1.95134084       0.61542465      -0.26052654      -0.05213606
F       11.67878432       9.75178842       0.02446199      -0.03776359      -0.08702799      -0.19675521
F        3.90712932       5.81282340      11.63852153      -0.47343651       0.01534049       0.33422001
F        3.94095475       3.98835716       1.88825467       0.11065385      -0.44709890       0.26531676
F        5.87672887       5.95538177       1.97884595      -0.46876121      -1.22027281      -0.10285313
F        5.82792194       3.91602459       0.05255231       0.29819115      -0.36754922      -0.40353156
F        3.86920739       1.96983364       7.73221150       0.06481134       0.00611203       0.39220739
F        3.88219916      11.69821345       9.82833454       0.01948048       0.39458232      -0.87746789
F        6.02478827       1.98352767       9.76220524      -1.05302230      -0.46028352      -0.14514649
F        5.95549881       0.06097940       7.72296511      -1.33961571       0.15854399       0.59197851
F        1.89398978       7.79646811       3.88980696       0.43528417       0.18855339       0.01321933
F        1.99476380       9.76852556       5.90376581       0.07806923       0.00142002      -0.27659619
F       11.67059131       7.79260569       5.84512726       0.05372526       0.13252931       0.19330762
F       11.69716007       9.79310459       4.02744952       0.32936783      -0.34209607      -0.81758509
F        3.97794034       2.05258304       3.87751744      -0.05614287      -0.34552747       0.11074384
F        4.00848856       0.01498150       5.87942086      -0.44639185      -0.30607338      -0.03906071
F        5.95702037       1.86601650       5.77279469      -0.43330005       0.54156869       0.58423820
F        5.97586429      11.63056260       3.78247853      -0.74174424       0.44474685       0.93938828
F        3.90303282       1.83394672       0.00269199       0.17476585       0.80144782      -0.40464382
F        3.92515394       0.09117649       1.97275971       0.17236110      -0.87930725      -0.06080119
F        5.85133054       1.91810063       2.00377611       0.09799837       0.54314760      -0.27546876
F        5.80228953      11.66649480       0.02551537       0.45837704       0.38843789      -0.19858558
F        1.95731004       7.79939418       7.78815806      -0.22124831      -0.01433956      -0.19805285
F        1.82996726       9.71667552       9.75295885       0.49166666       0.32006095      -0.30912528
F        5.71954013       5.94812510       5.93981505       1.25241340      -0.63055637      -0.27249965
F       11.60235524       5.81329157      11.59158728       0.54644607      -0.24435276       0.36576719
F        3.97770625       3.84591583       5.86560979      -0.02573906       0.26501466      -0.33887525
F        1.88392408       7.85171240      11.70195883       0.12424213      -0.45485720      -0.12605219
F        7.82186644       0.03054822       1.88392408       0.46460374       0.07974071       0.08921008
F        9.76150298       2.01583154       2.02238594       0.11584182      -0.14408848      -0.25734994
F        9.82798341      11.66438803       0.01591785      -0.51794128       0.26959354       0.02860147
F       11.60446201       9.78011282       7.84738181       0.75505689      -0.32562302      -0.73581836
F        3.97875964       9.71000407       7.97659728      -0.43986459       0.65341322      -1.14357089
F        3.77767977       7.76428128       9.74499992       0.52553374       0.02073646       0.15479635
F        5.93700602       9.82704706       9.79895674      -0.73727592      -0.07279770      -0.31013186
F        5.82745377       7.85616004       7.80454408      -0.15762585      -0.15171643       0.63572454
F        2.08664255       5.91230995       5.87848452      -0.51050667      -0.22739273      -0.23682791
F       11.67597528       3.86862218       5.74610889       0.02570229       0.33352916       0.48861784
F       11.64718271       5.83552974       3.89601024       0.21019411       0.12333633       0.35642997
F        3.97009845       9.71047224       3.93849685       0.00861577       0.24549819      -0.21268320
F        3.90139422       7.84784998       5.86876995      -0.07103495       0.02065264       0.05486194
F        5.88105946       9.73739213       5.79620329      -0.22809079       0.21139507       0.23778488
F        5.81340861       7.68434092       3.87424024      -0.85154988       0.52713220       0.19112295
F        1.84939639       4.00965899       7.80150096       0.52057923      -0.85068522      -0.13201458
F        3.85328954       9.77706970      11.67995475       0.14934973       0.02729149       0.00708313
F        3.79383170       7.78768988       1.85641897       0.58884099      -0.09460863       0.45651248
F        5.94566720       9.79474320       1.98926278      -1.00111558      -0.50200172      -0.46545915
F        5.72796722       7.76205747      11.69142496       0.34200969       0.35768390       0.11649051
F        1.88216843       5.88948656       9.62257295       0.24240309      -0.53616217       1.07173864
F        0.08368574       3.78060584       9.76068368      -0.49821860       0.33718424       0.05106057
F       11.61148459       5.74411916       7.82795268      -0.06467044       0.56019890      -0.15229235
F        4.00333867       5.79632034       7.92357680      -0.29735219      -0.14645981      -0.21037872
F        3.90584185       3.76187896       9.66880493       0.05072838       0.21921071       0.45794124
F        5.88737979       5.78964888       9.89387861      -0.49160084      -0.04893041      -0.36095177
F        5.93197317       3.82894460       7.73513758      -0.18644663       0.31271556       0.49981166
F        3.96799168       5.78801028       3.92082335      -0.51843518       0.37375870      -0.34190581
F        7.66116640       9.77039825       7.86353375       0.61409719       0.45106508      -0.38791879
216
Lattice="11.704299689364166 0.0 0.0 0.0 11.704299689364166 0.0 0.0 0.0 11.704299689364166" Properties=species:S:1:pos:R:3:REF_forces:R:3 REF_energy=-109721.08391146551 REF_stress="-0.09402943953019105 0.0004315340791437423 0.0003608359427733845 0.0004315340791437423 -0.09438568468488842 0.0002717746540990377 0.0003608359427733845 0.0002717746540990377 -0.09566559640047646" free_REF_energy=-109721.08391146551 pbc="T T T"
Li       0.05945784       0.14185611      11.55752777      -0.82684518      -0.04688535      -0.02252698
Li       3.88500820       5.68711922       9.79287051       0.46054500       1.02445760      -0.53709085
Li       5.88445371       3.69493037       9.75963030       0.09456646       0.20093454      -0.03277411
Li       5.95421134       5.86326893       7.87149267      -1.48248626       0.25963154      -0.98221129
Li       3.87154825       7.90894643       0.14361176       0.10906388      -0.15383527      -0.56131450
Li       3.70897553       9.71515396       2.01512928       0.23590077      -0.13267201       0.13955459
Li       5.98066306       7.80091574       1.83055247      -0.63253329      -0.25873294       0.61925097
Li       3.98566517       3.97021550       8.02680873      -0.27538623       0.12313707      -1.67952712
Li       5.81212114       9.71374944      11.68908410      -0.22721816       0.75915240      -0.05330874
Li       4.06127495       9.68507391       5.77337991      -0.41771016       0.39682612       0.03502228
Li       5.68196933       7.79635107       5.75453599       1.36880519       0.07260872       0.62167989
Li       5.60870041       9.65241891       3.79722595       0.07896681       0.97093340       0.69749169
Li       3.97630173       7.78780693       7.86236332       0.21953004      -0.07670398      -0.19835444
Li       3.88442298       9.50272092       9.48469630       0.12069375       1.11499951       0.94972540
Li       5.91488489       7.90192385       9.75588492       1.00823111      -0.19298700      -0.25412604
Li       3.76691181       7.41865332       3.98589926       0.11740171       1.59080092      -0.50710048
Li       5.83857286       9.85548851       7.84808407       0.23773320      -0.78773150      -0.50626615
Li       6.05662396       4.06794640       5.73826701      -1.09656778      -0.94946752       0.38911512
Li       3.91731206       3.93545373       3.85071460       0.16677872       0.00304136       0.28205567
Li       5.59559160       0.00854414       1.96620530       0.59894028       0.43124342       0.13791629
Li       5.95924419       1.92804929       0.05653177      -0.42432330      -0.20796034       0.08661764
Li       3.97173706       0.19862197       3.86464271      -0.61637699      -0.40139317       0.62479607
Li       3.88851949       2.20356850       5.96521338       0.13114992      -0.44702459      -0.36840952
Li       5.86362006       0.02141887       5.91699166      -0.13669578       0.39972221      -0.29515287
Li       5.79994867       2.14949464       3.98180275      -0.04940246      -0.78238823      -0.85401711
Li       3.94352969       5.85144759       5.80170431       0.65811165      -0.11969334       0.39490730
Li       3.84217046      11.65958926       7.81332230       0.57002411       0.38826692      -0.15470431
Li       5.87684592       0.00304312       9.86204292      -0.06851116       0.13803482      -0.19475746
Li       5.75863249       2.02800401       7.72296511       0.52622820      -0.76960857      -0.05788402
Li       3.78376600       4.04207990      11.64168169       0.84403480      -0.91303344       0.36178892
Li       4.02990743       5.75512120       1.98785826      -0.02914911       0.00633211       0.13067246
Li       6.03824821       3.84966121       2.02109847      -0.39377808       0.24122630       0.08628494
Li       5.81013141       5.86736543      11.64086239       0.52414226       0.17700374      -0.04075893
Li       3.98355840       1.84775779       9.67489117      -0.02446173      -0.05704969       0.44414522
Li       7.90625444      11.44504945       0.06261800       0.09434406       0.92736863       0.13943375
Li       7.83848654       1.75236775       1.95204310      -0.17288612       0.19619934      -0.01236546
Li      10.01630559       0.08485617       1.89188300      -0.66182149      -0.61539020       0.39173559
Li       9.50155049       3.74713155       9.71761186       1.08484767       0.59949101       0.36118034
Li       9.68238192       5.76190969       7.80477816       0.07884751       0.12809544       0.79461897
Li       7.83380483       7.90801009       0.04096505       0.24637699      -0.19397945      -0.62624745
Li       7.65414382       9.75951325       2.05527503       0.48433773       0.62391469      -0.63688616
Li       9.65979262       7.95471024       1.88837171       0.61380537       0.10773436       0.21207359
Li       9.91681904       9.66377208      11.68709437      -0.13021686       0.39035851       0.24590288
Li       7.82959128       5.80006571       9.71468579      -0.51195061       0.28439255       0.14143021
Li       7.82748450       8.09457662       3.76105966      -0.99741448      -1.35327624       0.72598594
Li       9.54649500       7.84340235       5.98206757      -0.20397873      -0.42420040      -0.47994140
Li       9.63907601       9.59401446       4.01913947       0.21505735       1.23200733      -0.42473776
Li       7.79038187       7.53803717       7.87160971      -0.40166905       0.83584995      -0.67814337
Li       7.73689322       9.99219473       9.54122806       0.20228848      -0.74817122       0.38623292
Li       9.80539411       7.74309650       9.87175749      -1.35208273       0.31529027      -0.44802758
Li       9.68799998       9.71538804       8.00152744      -0.30641430       0.34369864      -0.55643120
Li       7.72729570       9.73036955       6.02642687      -0.14337705      -0.03470629      -0.80254208
Li       7.63857711       3.93369808       7.62511716       0.36125336      -0.49241871       0.87967544
Li       9.90827490       5.72410481       3.43603126      -0.57922969       0.13811272       1.05129117
Li       9.73013546       4.11745559       5.92108817       0.50934736      -1.50148671      -0.21826995
Li       9.68460573       1.87350725       0.23080879       0.24779470       0.32289148      -0.98558637
Li       7.61598781      11.64636341       3.82063455       0.36683806       0.08925765       0.28680064
Li       7.91105320       1.92383574       5.78356265      -0.69422228      -0.29972969       0.18418817
Li       9.73891369       0.16163638       6.02712913      -0.13488187      -0.50152787      -0.62550826
Li      10.00015365       1.87339021       3.94926480      -0.21702476       0.11346921       0.01831422
Li       7.73970226       0.02762215       7.72530597      -0.09040693       0.32281563       0.88217892