216
Lattice="12.250299970348475 0.0 0.0 0.0 12.250299970348475 0.0 0.0 0.0 12.250299970348475" Properties=species:S:1:pos:R:3:REF_forces:R:3 REF_energy=-109723.6090682953 REF_stress="-0.02355441546032673 0.0014451800863239368 9.089760390474572e-05 0.0014451800863239368 -0.027886283088837747 0.0002111762514958739 9.089760390474572e-05 0.0002111762514958739 -0.027353751672022066" free_REF_energy=-109723.6090682953 pbc="T T T"
Li       0.02891071       0.10474006       0.31054510       0.88502847       0.45992793      -0.15497299
Li       4.28074482       6.68364116      10.49691454       0.07570305      -0.77789240      -0.10138528
Li       6.39833167       4.51644059      10.14214585       0.01941851      -0.67590574       0.49592775
Li       6.35472061       6.38399882       8.78640515       0.88554141       0.54257579      -0.71425374
Li       4.49267501       8.66120709       0.12311551      -0.61739309      -0.22765396       0.50185954
Li       4.32852099      10.44399324       2.24744003       0.48874126       0.18847317       0.47042909
Li       6.78960626       8.66365715       2.54634735      -0.81616045       0.07482424      -0.32489514
Li       4.41598813       4.51215299       8.14987956       0.45369609      -0.02048938       0.78418955
Li       6.32384985      10.62823775       0.35868878       0.09552188      -0.74322571      -0.28058346
Li       4.56985190      10.42966039       6.36537837      -0.05052089       0.13519015      -0.39925658
Li       6.41156200       8.53576401       6.45688811       0.39809213       0.33839600       0.15103483
Li       6.56922336      10.52313018       4.28907503      -0.48133854       0.15595823       0.79628479
Li       4.34089379       8.61159337       8.47083742       0.45167238      -0.30351153       0.02427121
Li       4.26543195      10.59552945      10.45134342       0.53847025      -0.16309921       0.27144242
Li       6.46607583       8.53319145      10.36791888      -0.01848006       0.47824987       0.17299796
Li       4.28270487       8.31121601       4.07481728       0.19723575       0.32224870       1.00267984
Li       6.47906115      10.95899585       8.45037942       0.36895279      -1.62235118       0.26722864
Li       6.48347126       4.56666682       6.42675237       0.18895063      -0.71720203      -0.68122407
Li       4.40888296       4.63637103       4.34910150       0.70114960      -0.54873975       0.57911091
Li       6.51152445      12.21624414       2.15152018       0.42207924       0.77540718       0.09724941
Li       6.48004118       2.34801500       0.36628397      -0.15320227       0.27705796      -0.56113041
Li       4.41684565       0.21438025       4.54253373       0.28084263       0.20101836      -0.24126769
Li       4.67483697       2.56962292       6.29163156      -0.47379749      -0.21056538      -0.14922194
Li       6.54852035       0.36040383       6.46338077       0.07121904       0.01513223      -0.43804219
Li       6.56530326       2.23739479       4.18850006      -0.27262204       0.59247499       0.17563077
Li       4.87451686       6.70324164       6.50588931      -0.85506201      -0.69081197      -0.05508640
Li       4.31835324       0.04667364       8.28193780       0.08656493       1.46870309      -0.20979585
Li       6.53700507       0.49025700      10.62076507      -0.56068921      -0.28224876      -0.37142336
Li       6.31784720       2.12003691       8.21970627       0.39917019       1.44294269       0.25200025
Li       4.27804976       4.40680041      12.16344534       0.44625275       0.17368496       0.33378473
Li       4.38021726       6.23062507       2.37067805       0.17814840       1.41178940       0.02968339
Li       6.55697306       4.37090703       2.19476374      -0.05774749      -0.17361297       0.35039945
Li       6.09011413       6.46154322       0.38919203       0.75110485      -0.05131459      -0.33995357
Li       4.54706634       2.66529776      10.34513332       0.20677532      -0.74070191      -0.08838244
Li       8.40101071       0.31091261       0.14234849       0.38740020       0.11057081       1.01900660
Li       8.50489326       2.50690139       1.93089228       0.15855350      -0.00564846       1.83039817
Li      10.79190176       0.61631259       2.18949611      -0.50825824      -0.14778804       0.69359133
Li      10.29907219       4.31284061      10.56331116      -0.08106637       0.30981202      -0.81624812
Li      10.61365989       6.74146258       8.65838952      -0.83708897      -0.75426885      -0.32428476
Li       8.33400157       8.57496497       0.18412201      -0.08800372       0.05976452       0.02240794
Li       8.97505977      10.66829623       2.37472065      -0.28035077       0.09269418      -0.14164387
Li      10.63338288       8.28941048       2.17957337      -0.87963713       0.25560519       0.05100015
Li      10.50205966      10.50867482       0.16378651       0.08442577       0.14471891       1.54563101
Li       8.38863791       6.55219544      10.66413113       0.38454987       0.06365949      -0.78102786
Li       8.35788966       8.60118062       4.31859825       0.59385824      -0.18361970       0.34407428
Li      10.57935905       8.35188701       6.51862962      -0.04412270       0.11172060      -0.30704680
Li      10.81603485      10.18636943       4.01087071      -0.07185282       0.80922592       0.12595680
Li       8.55879458       8.37160999       8.45356450      -0.84367022       0.23176181       0.36114024
Li       8.45270698      10.61696748      10.77585387      -0.62306366      -0.13896453      -0.66123605
Li      10.70529214       8.81727591      10.40895738      -0.95272613      -0.58326195       0.28763625
Li      10.11433767      10.47437398       8.78750768       1.47528922       0.45154151      -0.45507729
Li       8.92360851      10.32198025       6.45909316      -1.68408568       0.14583580      -0.18128977
Li       8.34943695       4.78251711       8.63572646       0.59583593      -1.66822738      -0.50727377
Li      10.61047482       6.48004118       4.23382617      -0.54177412      -0.19169297       0.39185232
Li      10.51455497       4.54743385       6.40494684      -0.08215395       0.10070625       0.03531025
Li      10.48503174       2.60416877       0.29131213       0.11663912      -0.24153432      -0.28966640
Li       8.22436139       0.45117855       4.40116527       0.54551687       0.00332392      -0.20795828
Li       8.64858928       2.70903134       6.48298125      -0.48307197      -0.41059720       0.09315158
Li      10.46396123       0.01898796       6.00509705      -0.36807630       0.50230357       0.39757148
Li      10.35346352       2.30905904       4.58369474      -0.27148998       0.32900453      -0.99374371
Li       8.64822177       0.51475760       8.75259432      -0.36556639      -0.10591222      -1.11806941
Li       8.43261649       2.30109635      10.41030491      -0.21700548       0.76844694      -0.14245866
Li      10.64244810       0.45546615      10.34991094       0.10503419      -0.82785897       0.53560064
Li      10.59271188       2.19464124       8.45564705      -0.52397000       0.57334829      -0.45564576
Li       8.35347955       4.64604877       0.05720890      -0.30182617      -0.51954822       0.72711954
Li       8.16862252       6.68437618       2.14845761       2.36646238      -0.64871375       0.02533488
Li      10.52558024       4.57352699       2.35034255      -0.31575461      -0.73431966      -0.14173463
Li      10.49764955       6.55011289       0.10976269       0.15692163      -0.83113198      -0.02946998
Li       8.38067522       4.57046442       4.46633687       0.21812879      -0.37171544      -0.38777686
Li       8.54495174       6.68731625       6.44941543       0.00175683      -0.99630196      -0.20263121
Li       4.63637103       2.46978298       2.14086242      -0.08572007       0.00841599       0.36351362
Li       4.21569573       0.25529625       0.12899566       0.57224683       0.02041816       0.47872938
Li       6.53982264       6.38118125       4.52379077      -0.09448598       0.26933103      -0.51239412
Li       2.35267011      10.57335641       0.37179660      -0.22524304      -0.09169094      -0.64983758
Li       2.42653942       2.66223519       8.47475752       0.56549280      -0.65288151      -0.69868546
Li       0.17689433       8.19202060       4.24374892       0.57652977       0.29048118      -0.00080707
Li       0.32267290       2.38280585       6.70716174      -0.05453130       0.26770120      -2.62667833
Li       2.22698203       0.23189818       6.51789460       1.27369571       0.73342723      -0.17710196
Li       2.57721811       2.19133366       4.44293879       0.06419068       0.51119290       0.15823932
Li       0.21095017       4.43558861       8.53184392      -0.43231068       0.16491698      -0.76174073
Li       0.50030225       4.43313855       0.16390901       0.00901609       0.15010846       0.31543039
Li       0.12740312       6.21102459      10.46138867       0.28255370       0.81485741      -0.06786221
Li       2.31910429       4.48458981      10.13283562       0.52605799       0.75815430       0.55451676
Li       0.26056388      12.04559746       8.19287812      -0.10135649       1.79274050       0.19244476
Li       2.54561233       6.55783058       8.21517366       0.22239168      -0.34861254       0.48436601
Li       0.14014343       4.06268948       4.17024712       0.44012761       0.41456416       0.65824817
Li       2.43964724       8.67921503       2.31175411      -0.72834905      -0.27577035       0.09261088
Li       0.48351934      10.60153210       2.13963739      -0.14118210       0.05945213       0.59051915
Li       0.53974822       2.19537626      10.27665414      -0.20801664      -0.00316297       0.47042678
Li      12.20619889       8.45172696       0.20053741       1.86475633      -0.09026063      -0.02971244
Li       2.76624024       0.47874172      10.28473934      -1.51845033      -0.30757490       0.41744791
Li       2.39615867       8.62984632       6.25255310       0.01435318      -0.66058762      -0.05538696
Li       2.46084026      10.79459682       4.54388127      -0.01622032      -0.58518694      -1.12101023
Li       0.48560189      10.56037109       6.25451315      -0.42994784      -0.45049687      -0.33793963
Li       2.45630765       2.55651510       0.14369602      -0.14805620      -0.42615264       0.07625661
Li       2.37521066       8.20451590      10.68091404      -0.67992746       0.35025933      -0.23600439
Li       2.81622146       4.51742062       2.31726674      -1.15275050       0.08607308       0.44062949
Li       0.23924836       0.36995906       4.36919199       0.74749451       0.28547370      -0.75104803
Li       2.32510693       6.66183563       0.76662377      -0.11237006       0.00766574      -1.69063840
Li       0.36542645      10.77952896      10.22802045       0.36688125      -0.36483440       0.76259177
Li       0.51292006       2.42408936       2.09688385       0.20421553       0.12802063       0.37722711
Li       2.12665207       6.64934032       4.59251496       0.35005929      -0.95606625      -0.35754635
Li       2.50886143       4.34554891       6.27693120       0.02575911       0.30858097      -0.33381738
Li       2.38660344      10.43517302       8.56798230      -0.03407740      -0.07410434      -0.22031397
Li       0.44468589       6.38718390       6.72761974      -0.12800623      -0.36294669      -1.39924036
Li       0.21756533       8.44817437       8.19214310       0.54786712       0.04474491       0.64169258
Li       0.29155714       6.37579112       2.37374063       0.11710166      -0.33780387       0.00538749
Li       2.76979282       0.33712826       2.18288095      -0.55857499       0.25396946       0.18894266
F       10.56037109       0.22810059       8.48786534       0.33335252      -0.32021213      -0.08499553
F       10.48037663       4.56384925       0.14063344      -0.06183426      -0.75411278       0.00152004
F       10.61954004       0.24500600       4.16644952       0.01312600       0.45143866       0.59165686
F        2.12162945       6.58392372       2.42678442       1.07961085      -0.27818873       0.71456562
F        2.36541042       2.22587950      10.52533523       0.60388168       1.44155198      -0.85178539
F       10.32075522       6.36770592       2.31444917       0.38353789       0.24425866      -0.33632575
F        0.47016651       0.36530395      10.36938891      -1.23888040      -0.47433845      -0.25594792
F        0.55016097       2.32633196       8.27324008      -0.32834941       0.49125605       2.43937398
F        8.59652550       0.49932223       6.43863516       0.00540137      -0.65686852      -0.63874456
F        8.50109566       2.36369538       8.37442756       0.24194981      -0.33732642       0.35936180
F        8.57802755       0.44860598      10.58499419      -0.50472066      -0.62722756      -0.66665671
F        8.50305571       2.50469633       4.24362641      -0.18318262      -0.88464435       0.09449215
F        2.50996396       4.81253034       0.41099756      -0.08418794      -0.60273831      -0.65485560
F       10.45379348       2.13914738      10.30997496       0.43403152       1.61145330       0.72021536
F       10.57458144       2.54904242       6.28305635       0.52931609      -0.84485524       1.18055313
F        8.38876041       4.37286708       2.07507831       0.42466088       0.50426481       0.18354977
F        0.01690541       8.20586344      10.43137543       1.29398120       0.75354714      -0.09171356
F        2.50641137       0.21817784       8.47095993      -0.33081664      -0.20992543      -0.49547960
F       10.52423270      10.71803245      10.73371283       0.17306173      -0.38853148      -1.89548076
F       10.44950587       8.65704198       8.49619554       0.32626476      -0.14199020       0.00195172
F        2.34286987       0.21952538       0.09297978       0.50258176       0.26257905       0.73344060
F        8.76153704      10.40736484       4.42248079      -0.48364173       0.53684685       0.01883667
F        8.48615030       8.47304248       6.54178269       0.35574220       0.66706320       0.07021477
F       10.59540695      10.50573475       6.47465104       1.26840901      -0.10952385      -0.22368418
F       10.60508468       8.45344200       3.99249526       0.24203979      -0.49788513       1.55786689
F        2.69641353       2.84831725       1.92231707      -0.07649340      -2.01090143       0.62251498
F        0.45350610       0.54685339       2.37129057      -0.24791297      -0.82916174      -1.01577164
F        0.47065652       2.34544243       0.16660408      -0.52704452       0.53008871      -0.09317832
F        8.33498160      10.80856217       0.34435593       0.56945641      -2.33326301      -0.35844263
F        8.72392862       8.70126557       2.34862751      -1.23930849      -0.34766174      -0.88256330
F        8.20672096       6.41070448       0.18914463       0.70662528       1.28693278       0.86802063
F       10.80635711      10.46726881       2.19366122      -0.26310896      -0.07567836      -0.04422915
F        2.51412906       0.32316291       4.41696816       0.29218376       0.22236854      -0.27805761
F        8.37111998       6.43349004       8.64711924       0.30333335       1.83880130      -0.25409364
F        8.25927474       4.29789524      10.52766279       0.95257649       0.08632762      -0.01739943
F       10.43076292       6.28562891      10.40123969      -0.25312536       0.06633189       0.59995741
F       10.23353309       4.41831569       8.56761479       1.24690353      -0.39610287      -0.13976131
F        2.59204097       2.34654496       6.40494684      -0.48848749       0.43873356       0.11004656
F        0.49062451       0.42275785       6.29775671      -1.17261433      -0.74653189       0.30449163
F        0.77679152       2.25491272       4.09331523      -0.89874454       0.61708121       0.62083014
F        8.49068291       6.80945174       4.46890943       0.09982565      -0.94362391      -0.54014558
F        8.59799554       4.52795588       6.24826550      -0.33350833       0.13827393       0.62206967
F       10.47682404       6.51924214       6.55868810      -0.15788527       0.10437856      -0.08448594
F       10.39278699       4.32202833       4.48838741       0.67401906       0.50558970      -1.27168974
F       10.52251766       8.34612937       0.03613838      -1.54021755       0.75554180       0.61941680
F        0.37289913       4.35461413       2.40448888      -0.61689327       0.39155999      -0.83558564
F        2.65819259       4.54277874       4.32827599      -0.79177970      -0.34383183      -0.05985734
F        8.37295753       2.09455629       0.33872079       0.38441103       0.83296826      -2.02119999
F        6.42479232       4.51693061       4.28637996       0.67143742       0.24571056      -0.09793615
F        8.43396402       8.57092237      10.46408373       0.27455397      -0.07540454       0.72414118
F        2.48117576      10.80917468       2.21105664      -0.32174065      -0.87944712       0.11224022
F        0.09787990       8.25878473       2.19341621       1.06081762       0.09037402      -0.22479078
F        0.33516821      10.42537278       0.28396195      -0.27446423       0.44624812      -0.33302934
F        4.29556768       6.76290060       0.23177568       0.29359247      -0.73344009       0.35980249
F        4.65082638       4.52758837       2.42972450      -0.09307162       0.04742991      -0.53176018
F        6.57559352       6.73766498       2.37619069      -1.99790785      -0.01646226      -0.00103435
F        6.36954347       4.39050751       0.29400720      -0.37119273       0.38143395      -0.03897330
F        4.45800666       2.53262702       8.38986294      -0.25481818      -0.31420012       0.09325571
F        4.43056599       0.28518698      10.61770249       0.83697893      -0.10434462      -0.88242600
F        6.44647535       2.56594783      10.20082479      -0.01640055      -1.03338961       0.57102479
F        6.54435525       0.43317061       8.46532479      -0.09796674      -0.42211935      -0.02539479
F        2.18606603       8.46581480       4.27437467       0.44123113       0.03482611       0.28561228
F        2.33858226      10.51136989       6.27754372       0.15324906      -0.01058266       0.98885296
F        0.23079565       8.21848124       6.29408162       0.15885818       1.03008806      -0.00266726
F        0.59426205      10.48515425       4.12149092      -0.99210361       0.30269700       0.76664666
F        4.70374768       2.43009201       4.36184181      -1.00879007      -0.25699282      -0.46219102
F        4.42052074       0.35905629       6.41339954       0.35679507      -0.50054236       0.46829404
F        6.54594779       2.53299452       6.28085130       0.08574783      -0.63126162       0.51980455
F        6.28464889       0.29388470       4.45898669       1.40347806      -0.19885400      -0.03865294
F        4.48287477       2.51376155       0.05586137      -0.01422051      -0.37194401       0.14909904
F        4.75225887       0.23888085       2.22538949      -1.72951990       0.76399122      -0.21862116
F        6.60131915       2.34813750       2.13326724      -0.71130777      -0.00490001       0.77471143
F        6.44304527       0.08599711       0.17922189      -0.26119734       1.67800914      -0.05281997
F        2.18312596       8.25964225       8.51689855       0.72714860       1.44580638      -0.35456798
F        2.16254545      10.58756676      10.36154872       1.05818841      -0.57614925       0.20954491
F        6.69797401       6.33058752       6.29640918      -0.65812013       1.38320362       0.53240193
F        0.29768229       6.34871796       0.03687340      -0.20834857      -0.00961747       0.82776229
F        4.48275227       4.48532483       6.42724238       0.16287270      -0.20897361      -0.61616204
F        2.18778107       8.56638976       0.32879805       0.37189773      -0.04126158      -0.10087389
F        8.50379073       0.17566930       2.19745881      -0.56478343       0.43888062       1.34764938
F       10.57164137       2.51902918       2.05204775       0.00628583      -0.15104511       0.54227420
F       10.38323175       0.12042045       0.52014774       1.16468016       0.71118847      -1.15311534
F        0.54183077      10.37931166       8.18895802      -0.54563694      -0.30605538       0.42111147
F        4.55221147      10.62946278       8.48590529      -0.72301992      -1.15260086      -0.14369330
F        4.32570342       8.49778808      10.49495449      -0.15403505       0.58580529      -0.46331150
F        6.42381230      10.50181466      10.40834487       0.09699667       0.52682058       0.11691629
F        6.38412133       8.48823285       8.53404897      -0.10441456      -0.37360931      -0.57045580
F        2.50114374       6.49915164       6.40555935      -0.95480101       0.20334109       0.18034206
F        0.26779156       4.45506659       6.31331459       0.40683774      -0.37101919       0.91931593
F        0.25284619       6.25157308       4.40398284      -0.27752770       0.61460010      -0.42472696
F        4.32876600      10.47474149       4.36698693      -0.06230734       0.04749882       0.21834399
F        4.33146106       8.49840060       6.43005995       0.27730196       0.49437480       0.62553603
F        6.45321302      10.50267218       6.39857668       0.15567387       0.45023050       0.33834895
F        6.40384431       8.60118062       4.53628608       0.30879695      -0.22337461      -0.68129503
F        2.59351101       4.69002734       8.31979122      -1.17808795      -1.17803705       0.08186495
F        4.43632363      10.49397446       0.36199636      -0.93678169       0.51532312      -0.64899940
F        4.21275566       8.52927135       2.32290188       0.39226884      -0.35617415      -0.14172821
F        6.29016153      10.47265894       2.52356179       0.66534365      -0.54354818      -0.56820557
F        6.21335214       8.79277531       0.24255594       1.87186106      -1.13173559       0.12261128
F        2.45459261       6.42185225      10.34207074      -0.19699124      -0.28814507       0.03380924
F        0.46673643       4.32925601      10.31254752      -0.12422002      -0.24517860       0.17825612
F        0.09163224       6.58612877       8.40627834       0.67948240      -1.02503584       0.63902301
F        4.65793156       6.42430231       8.48725283      -1.01475014       0.68821053      -0.23726243
F        4.46780690       4.43975372      10.29208952      -0.40762732       0.50717092       0.41178248
F        6.59102889       6.34896297      10.60006206      -1.36388744       0.61070951      -0.17871789
F        6.56420074       4.58736983       8.16102734      -0.35862981      -0.27140051       1.59256547
F        4.42272580       6.44598534       4.73559846       0.54231148       0.88991048      -1.65004402
F        8.50942587      10.44423825       8.63560396      -1.24385137       0.70876830      -0.48159050
216
Lattice="12.250299970348475 0.0 0.0 0.0 12.250299970348475 0.0 0.0 0.0 12.250299970348475" Properties=species:S:1:pos:R:3:REF_forces:R:3 REF_energy=-109724.64079716644 REF_stress="-0.025482546452245583 0.001873959692622081 -0.00014139627274071558 0.001873959692622081 -0.03450987212488659 0.0009365207675034408 -0.00014139627274071558 0.0009365207675034408 -0.027433631384544417" free_REF_energy=-109724.64079716644 pbc="T T T"
Li       0.34999107       0.26999661       0.19183970       0.02919411       0.23518061       0.19144228
Li       0.45007602       2.35622270       2.28137336      -0.05197125      -0.35871080      -0.41923688
Li       2.41061403       0.14639108       2.19635628      -0.28764834       0.01657744       0.14488423
Li       2.47590813       2.46990548       0.26803656      -0.67510613      -0.29167211      -0.13391102
F        2.49011847       0.27759180       0.18693958      -0.25590987      -0.05163495       0.77138571
F        2.39775121       2.37570067       2.35218010       0.13251466      -0.19441859      -0.20492129
F        0.37142910       0.34117085       2.18974112      -0.01458664      -0.05340181       0.39397219
F        0.32634799       2.23237216       0.32181538       0.01868703       0.38861273      -0.11124649
Li       0.38355689       0.56853642       4.17085963       0.07137331      -0.61061515       0.09650867
Li       0.07889193       2.60870138       6.60707679       1.29500398      -0.31312797      -0.30843699
Li       2.36467540       0.61900766       6.54692781      -0.21621563      -0.09307471      -0.20883965
Li       2.32473943       2.48007323       4.18090488       0.28956227      -1.09952635       0.31560780
F        2.24070237       0.11319277       4.34812147       0.35574786       1.72903834      -0.23452549
F        2.16842560       2.53960969       6.56444574       1.24724240      -1.41556430      -0.56773017
F        0.31446520       0.25762381       6.30718944       0.38753518       0.36249906       0.19361872
F        0.47959924       2.56815289       4.31921076      -0.68970588      -1.04303485      -0.48562251
Li       0.47739419       0.37191911       8.27507763      -0.18428819      -0.28496411       0.38308640
Li       0.25443873       2.19611128      10.18134681       0.17313552       0.56849945       0.70710248
Li       2.42090428       0.29878482      10.66425363      -0.00906417       0.51993928      -0.78375478
Li       2.41833172       2.59400102       8.71314836      -0.28565213      -0.39516621      -0.60667493
F        2.60686383       0.40842500       8.51640854      -0.26256311      -0.01748324      -0.26036713
F        2.56876540       2.36773798      10.55645099      -0.04054373      -0.07564957      -0.48446166
F        0.52431284       0.24721105      10.42966039      -0.02718684       0.21902457       0.16711682
F        0.52223029       2.21571176       8.38582034      -0.85099529      -0.01853200      -0.06375050
Li       0.13107821       4.20565048       0.46440887       0.69014117      -0.11657639      -1.69355968
Li       0.52321031       6.49645658       1.92954475      -0.41107826      -1.07726343       0.38444471
Li       2.35659021       4.60194769       2.29729875       0.15196171      -1.82057475      -0.38604908
Li       2.37459815       6.53271747       0.28677952      -0.06358698      -0.87931162      -0.79646014
F        2.29729875       4.29373014       0.10596509       0.23286430       0.86893877       0.76584653
F        2.40497889       6.23920028       2.13167470       0.17759124       1.13692408       0.42713325
F        0.46624642       4.38425986       2.10974666      -0.23326796      -0.08923759       1.36381802
F        0.32732802       6.47060844       0.11735787      -0.16470384      -0.47132486       0.15772150
Li       0.67070392       4.36061678       4.21569573      -0.88804772      -0.40980479       0.29024618
Li       0.11196774       6.45933817       6.32605490       0.95766059      -0.26923795       0.54864565
Li       2.30513895       4.25477419       6.12796755       0.35866452       0.28978107       1.14297080
Li       2.14012740       6.15700077       4.60060015       1.13232926       0.98315437       0.05566490
F        2.57599308       4.15701679       4.32068080      -0.69006198       1.69652391      -0.52485394
F        2.39762871       6.14413795       6.51728209      -0.72736766       0.91011164      -0.84828689
F        0.49993474       4.31945577       6.31331459      -1.05601352       0.97460108       0.06426832
F        0.45509864       6.10040438       4.23835878      -0.77120548       0.69024812       0.29659886
Li       0.74543075       4.49769763       8.35874718      -1.40762679       0.14642510       0.12359627
Li       0.52186278       6.74501516      10.16529892      -0.29862463      -2.04924301       0.25555403
Li       2.66321521       4.51154047      10.62689022      -0.81271440       0.15017351      -0.79662546
Li       2.35463016       6.52426476       8.56222466       0.55592984      -0.33421616      -0.55510014
F        2.40485639       4.39332508       8.49252045       1.61415528       0.21866718       0.44134117
F        2.47358057       6.64137763      10.50095713      -0.46175084      -0.90620691      -0.43389346
F        0.49589214       4.16804206      10.18698195      -0.48381117       0.34937204       0.67022952
F        0.44566591       6.45799064       8.24469689      -0.09073886       0.09375913       0.57235353
Li       0.14724861       8.28781794       0.00355259       0.12149054       0.49582542       0.74400166
Li       0.23569577      10.21062503       2.42151680       0.36842546       0.16969487      -0.98052490
Li       2.34752498       8.35911469       2.36271536      -0.01485172       0.13307979      -0.09414300
Li       2.34948503      10.45305846       0.21462526       0.04409699      -0.12262054       0.42552811
F        2.46022774       8.23011903       0.41222259       0.12432672       1.55543925      -0.48792596
F        2.36173533      10.33092297       2.12726459      -0.00898472       0.44047548       0.48049984
F        0.27942934       8.11055610       2.24731753      -0.01750098       1.69046870       0.39923164
F        0.49674966      10.23549313       0.32365293      -0.55749024       0.51445769      -0.57675397
Li       0.31275016       8.22191133       4.25820427      -0.43757296       0.20757236      -0.11214355
Li       0.23324571      10.51308493       6.19571171       0.34758718      -0.21289403       0.29128079
Li       2.44258731       8.59211539       6.36648089      -0.41873886      -0.30796931      -0.19912423
Li       2.33747974      10.67907650       4.50921292      -1.29236912      -0.56305771       0.00608169
F        2.03661237       8.17536019       4.39455011       1.09926770       0.49223847       0.16926986