42
Lattice="-3.05461724 -5.29075238 -0.0 -3.05461724 5.29075238 0.0 0.0 0.0 -22.16307884" Properties=species:S:1:pos:R:3:REF_forces:R:3:magmoms:R:1 bandgap=0.0 e_per_atom_relaxed=-4.646901070238095 mp_id=mp-1215006 REF_energy_per_atom=-4.644511616428572 ef_per_atom_relaxed=-4.646901070238095 corrected_total_REF_energy=-195.06948789 ef_per_atom=-0.751157698293651 task_id=mp-1215006 calc_id=0 ionic_step=2 pretrained=T config_weight=1.0 mace_descriptors head=pbe_mp REF_energy=-181.32948789 REF_stress="-0.00010966270367387452 -0.0 0.0 -0.0 -0.00010966270991538363 -0.0 0.0 -0.0 -0.00032119202921775656" pbc="T T T"
Ag      -3.89808390       0.13803790     -17.81998640       0.02437949      -0.02260633       0.01093864      -0.00000000
Ag      -1.22511958       1.84589372     -17.81998640       0.00738791       0.03241642       0.01093864      -0.00000000
Ag      -4.04064823      -3.30682087      -6.73844698      -0.03176740       0.00981009       0.01093864      -0.00000000
Ag      -4.04064823       3.30682087     -17.81998640      -0.03176740      -0.00981009       0.01093864      -0.00000000
Ag      -3.89808390      -0.13803790      -6.73844698       0.02437949       0.02260633       0.01093864      -0.00000000
Ag      -1.22511958      -1.84589372      -6.73844698       0.00738791      -0.03241642       0.01093864      -0.00000000
Ag      -3.05461724      -1.76358765     -21.09434304      -0.00000000      -0.00000000      -0.02053068       0.00000000
Ag      -3.05461724       1.76358765     -10.01280362      -0.00000000       0.00000000      -0.02053068       0.00000000
Ag      -3.05461724      -1.76358765      -4.60673556      -0.00000000       0.00000000      -0.04142339      -0.00000000
Ag      -3.05461724       1.76358765     -15.68827498      -0.00000000       0.00000000      -0.04142339      -0.00000000
Ag      -4.88233821       1.69425398     -12.18426030       0.01062706       0.00225143      -0.01698163      -0.00000000
Ag      -2.08071509       0.21539637     -12.18426030      -0.00726333       0.00807759      -0.01698163      -0.00000000
Ag      -2.20079842      -3.38110203      -1.10272088      -0.00336373       0.01032902      -0.01698163      -0.00000000
Ag      -2.20079842       3.38110203     -12.18426030      -0.00336373      -0.01032902      -0.01698163      -0.00000000
Ag      -4.88233821      -1.69425398      -1.10272088       0.01062706      -0.00225143      -0.01698163      -0.00000000
Ag      -2.08071509      -0.21539637      -1.10272088      -0.00726333      -0.00807759      -0.01698163      -0.00000000
Hg      -3.05461724      -1.76358765     -14.78196619      -0.00000000      -0.00000000       0.12308371       0.00000000
Hg      -3.05461724       1.76358765      -3.70042677      -0.00000000       0.00000000       0.12308371       0.00000000
As       0.00000000       0.00000000     -20.39667459      -0.00000000       0.00000000      -0.12451247       0.00000000
As       0.00000000       0.00000000      -9.31513517      -0.00000000       0.00000000      -0.12451247       0.00000000
As       0.00000000       0.00000000     -15.00224902      -0.00000000      -0.00000000       0.18932538       0.00000000
As       0.00000000       0.00000000      -3.92070960      -0.00000000       0.00000000       0.18932538       0.00000000
O       -4.71828782       0.83807084     -14.38703608      -0.06662016      -0.04220707      -0.05757005      -0.00000000
O       -1.42126395       0.78555975     -14.38703608       0.06986247      -0.03659122      -0.05757005      -0.00000000
O       -3.02429995      -3.66712179      -3.30549666      -0.00324231      -0.07879829      -0.05757005      -0.00000000
O       -3.02429995       3.66712179     -14.38703608      -0.00324231       0.07879829      -0.05757005      -0.00000000
O       -4.71828782      -0.83807084      -3.30549666      -0.06662016       0.04220707      -0.05757005      -0.00000000
O       -1.42126395      -0.78555975      -3.30549666       0.06986247       0.03659122      -0.05757005      -0.00000000
O       -3.05461724      -1.76358765     -12.68290276      -0.00000000       0.00000000      -0.05142322      -0.00000000
O       -3.05461724       1.76358765      -1.60136334      -0.00000000       0.00000000      -0.05142322      -0.00000000
O        0.00000000       0.00000000     -16.73724176      -0.00000000       0.00000000      -0.04415612      -0.00000000
O        0.00000000       0.00000000      -5.65570234      -0.00000000       0.00000000      -0.04415612      -0.00000000
O        0.00000000       0.00000000     -22.15713337      -0.00000000       0.00000000       0.03853766      -0.00000000
O        0.00000000       0.00000000     -11.07559395      -0.00000000      -0.00000000       0.03853766      -0.00000000
O       -3.16355048      -3.66942401     -19.82660651      -0.06296890       0.05470037       0.03783021      -0.00000000
O       -1.34964490      -0.90500314     -19.82660651      -0.01588746      -0.08188285       0.03783021      -0.00000000
O       -4.65065634       0.71632523      -8.74506709       0.07885635      -0.02718248       0.03783021      -0.00000000
O       -4.65065634      -0.71632523     -19.82660651       0.07885635       0.02718248       0.03783021      -0.00000000
O       -3.16355048       3.66942401      -8.74506709      -0.06296890      -0.05470037       0.03783021      -0.00000000
O       -1.34964490       0.90500314      -8.74506709      -0.01588746       0.08188285       0.03783021      -0.00000000
O       -3.05461724      -1.76358765     -16.85630980      -0.00000000      -0.00000000       0.00844759      -0.00000000
O       -3.05461724       1.76358765      -5.77477038      -0.00000000      -0.00000000       0.00844759      -0.00000000
32
Lattice="0.0 0.0 -8.54563432 -4.22849605 -7.32397025 -0.0 -4.22849605 7.32397025 0.0" Properties=species:S:1:pos:R:3:REF_forces:R:3:magmoms:R:1 bandgap=0.0 e_per_atom_relaxed=-10.9670329453125 mp_id=mp-1212448 REF_energy_per_atom=-10.9669910871875 ef_per_atom_relaxed=-10.9670329453125 corrected_total_REF_energy=-350.94371479 ef_per_atom=-1.3272012074218735 task_id=mp-1212448 calc_id=0 ionic_step=2 pretrained=T config_weight=1.0 mace_descriptors head=pbe_mp REF_energy=-346.82171479 REF_stress="-0.006085966424307969 -0.0 -0.0 -0.0 -0.006085966836247571 0.0 -0.0 0.0 -0.00544951605000976" pbc="T T T"
Hf      -4.22849605      -0.69816318      -6.40922574      -0.00000000      -0.03122764       0.00000000       0.00000000
Hf      -4.22849605       0.69816318      -2.13640858      -0.00000000       0.03122764       0.00000000       0.00000000
Hf      -5.73811705      -3.31290354      -6.40922574       0.02704393       0.01561382       0.00000000       0.00000000
Hf      -2.71887505       3.31290354      -2.13640858      -0.02704393      -0.01561382       0.00000000       0.00100000
Hf      -2.71887505      -3.31290354      -6.40922574      -0.02704393       0.01561382       0.00000000      -0.00100000
Hf      -5.73811705       3.31290354      -2.13640858       0.02704393      -0.01561382       0.00000000      -0.00100000
Hf      -4.22849605      -4.36928920      -3.73802273       0.00000000       0.02481524      -0.12207665       0.00000000
Hf      -4.22849605       4.36928920      -4.80761159      -0.00000000      -0.02481524       0.12207665       0.00000000
Hf      -2.55882876      -1.47734052      -3.73802273      -0.02149062      -0.01240762      -0.12207665      -0.00000000
Hf      -4.22849605       4.36928920      -8.01083989      -0.00000000      -0.02481524      -0.12207665      -0.00000000
Hf      -5.89816334       1.47734052      -4.80761159       0.02149062       0.01240762       0.12207665      -0.00000000
Hf      -4.22849605      -4.36928920      -0.53479443      -0.00000000       0.02481524       0.12207665       0.00000000
Hf      -5.89816334      -1.47734052      -3.73802273       0.02149062      -0.01240762      -0.12207665       0.00000000
Hf      -5.89816334       1.47734052      -8.01083989       0.02149062       0.01240762      -0.12207665      -0.00000000
Hf      -2.55882876       1.47734052      -4.80761159      -0.02149062       0.01240762       0.12207665      -0.00000000
Hf      -2.55882876      -1.47734052      -0.53479443      -0.02149062      -0.01240762       0.12207665      -0.00000000
Hf      -2.55882876       1.47734052      -8.01083989      -0.02149062       0.01240762      -0.12207665       0.00000000
Hf      -5.89816334      -1.47734052      -0.53479443       0.02149062      -0.01240762       0.12207665      -0.00000000
Re      -4.22849605      -5.70999440      -6.40922574      -0.00000000       0.11610398       0.00000000      -0.00000000
Re      -4.22849605       5.70999440      -2.13640858      -0.00000000      -0.11610398       0.00000000      -0.00000000
Re      -1.39774404      -0.80698793      -6.40922574      -0.10054900      -0.05805199       0.00000000      -0.00000000
Re      -7.05924806       0.80698793      -2.13640858       0.10054900       0.05805199       0.00000000      -0.00000000
Re      -7.05924806      -0.80698793      -6.40922574       0.10054900      -0.05805199       0.00000000       0.00100000
Re      -1.39774404       0.80698793      -2.13640858      -0.10054900       0.05805199       0.00000000       0.00100000
Re       0.00000000       0.00000000       0.00000000      -0.00000000      -0.00000000       0.00000000      -0.00000000
Re       0.00000000       0.00000000      -4.27281716      -0.00000000       0.00000000       0.00000000      -0.00000000
O       -4.22849605       0.00000000       0.00000000      -0.00000000      -0.00000000       0.00000000      -0.00000000
O       -2.11424803       3.66198513       0.00000000      -0.00000000      -0.00000000       0.00000000       0.00000000
O       -4.22849605       0.00000000      -4.27281716       0.00000000      -0.00000000       0.00000000      -0.00000000
O       -2.11424803      -3.66198513       0.00000000      -0.00000000       0.00000000       0.00000000      -0.00000000
O       -2.11424803       3.66198513      -4.27281716       0.00000000       0.00000000       0.00000000       0.00000000
O       -2.11424803      -3.66198513      -4.27281716       0.00000000      -0.00000000       0.00000000      -0.00000000
22
Lattice="3.9093875 -0.0 -0.0 -1.95469325 6.9087135 -0.0 0.0 -0.0 16.31123251" Properties=species:S:1:pos:R:3:REF_forces:R:3:magmoms:R:1 bandgap=1.5457999999999998 e_per_atom_relaxed=-5.367956743181818 mp_id=mp-1192137 REF_energy_per_atom=-5.365952327727273 ef_per_atom_relaxed=-5.367956743181818 corrected_total_REF_energy=-118.05095121000001 ef_per_atom=-1.3226457946022734 task_id=mp-1192137 calc_id=0 ionic_step=2 pretrained=T config_weight=1.0 mace_descriptors head=pbe_mp REF_energy=-113.02095121 REF_stress="-0.0038641906826156584 -2.246943285317973e-10 -0.0 -2.246943285317973e-10 -0.0030840076280309182 -0.0 -0.0 -0.0 -0.0037264686317909352" pbc="T T T"
Er       0.00000021       2.64838713       1.52866848      -0.00000000      -0.01294116      -0.02715516      -0.00000000
Er       1.95469404       4.26032637      14.78256403       0.00000000       0.01294116       0.02715516       0.00000000
Er       0.00000021       2.64838713       6.62694777      -0.00000000      -0.01294116       0.02715516       0.00000000
Er       1.95469404       4.26032637       9.68428474       0.00000000       0.01294116      -0.02715516      -0.00000000
Tl       1.95469416       5.92856513       4.07780813       0.00000000       0.03806598       0.00000000      -0.00000000
Tl       0.00000009       0.98014837      12.23342438      -0.00000000      -0.03806598       0.00000000      -0.00000000
Cu       1.95469388       2.03353678       4.07780813       0.00000000       0.06489599       0.00000000      -0.00000000
Cu       0.00000037       4.87517672      12.23342438      -0.00000000      -0.06489599       0.00000000       0.00000000
Cu       0.00000042       5.76361179       7.48811299      -0.00000001      -0.08501688       0.14064521       0.00000000
Cu       1.95469383       1.14510171       8.82311952       0.00000001       0.08501688      -0.14064521       0.00000000
Cu       0.00000042       5.76361179       0.66750326      -0.00000001      -0.08501688      -0.14064521       0.00000000
Cu       1.95469383       1.14510171      15.64372925       0.00000001       0.08501688       0.14064521       0.00000000
S        0.00000024       3.33155409       4.07780813      -0.00000000      -0.06583280       0.00000000       0.00000000
S        1.95469401       3.57715941      12.23342438       0.00000000       0.06583280       0.00000000       0.00000000
S        0.00000042       6.05911674      14.43115108       0.00000000       0.00078579       0.02570974       0.00000000
S        1.95469383       0.84959676       1.88008143      -0.00000000      -0.00078579      -0.02570974       0.00000000
S        0.00000042       6.05911674      10.03569768       0.00000000       0.00078579      -0.02570974       0.00000000
S        1.95469383       0.84959676       6.27553483      -0.00000000      -0.00078579       0.02570974       0.00000000
S        0.00000017       2.32635161      15.16639049      -0.00000000      -0.05662449      -0.02472830       0.00000000
S        1.95469408       4.58236189       1.14484202       0.00000000       0.05662449       0.02472830       0.00000000
S        0.00000017       2.32635161       9.30045828      -0.00000000      -0.05662449       0.02472830       0.00000000
S        1.95469408       4.58236189       7.01077423       0.00000000       0.05662449      -0.02472830       0.00000000
72
Lattice="-0.0 0.0 -15.14308825 -11.50775775 -19.93202128 0.0 -11.50775775 19.93202128 0.0" Properties=species:S:1:pos:R:3:REF_forces:R:3:magmoms:R:1 bandgap=0.9861999999999997 e_per_atom_relaxed=-5.705755395000001 mp_id=mp-1080638 REF_energy_per_atom=-5.705755395 ef_per_atom_relaxed=-5.705755395000001 corrected_total_REF_energy=-410.81438844 ef_per_atom=-1.3974513582291668 task_id=mp-1080638 calc_id=0 ionic_step=2 pretrained=T config_weight=1.0 mace_descriptors head=pbe_mp REF_energy=-388.15838844 REF_stress="0.001092775220453398 0.0 -0.0 0.0 0.0010927752391779253 -0.0 -0.0 -0.0 0.0011387624537231046" pbc="T T T"
Ce      -9.20089986      10.73645283      -1.11491775      -0.02400277      -0.01306520       0.00083710       0.00000000
Ce     -16.20534863       6.59558178      -1.11491775       0.02331618      -0.01425441       0.00083710       0.00100000
Ce      -9.11702476       2.59998667      -1.11491775       0.00068659       0.02731961       0.00083710       0.00000000
Ce      -9.11702476      -2.59998667      -1.11491775       0.00068659      -0.02731961       0.00083710       0.00000000
Ce      -9.20089986     -10.73645283      -1.11491775      -0.02400277       0.01306520       0.00083710       0.00000000
Ce     -16.20534863      -6.59558178      -1.11491775       0.02331618       0.01425441       0.00083710       0.00000000
Ce     -13.81461564     -10.73645283     -14.02817050       0.02400277       0.01306520      -0.00083710       0.00000000
Ce      -6.81016687      -6.59558178     -14.02817050      -0.02331618       0.01425441      -0.00083710       0.00000000
Ce     -13.89849074      -2.59998667     -14.02817050      -0.00068659      -0.02731961      -0.00083710       0.00000000
Ce     -13.89849074       2.59998667     -14.02817050      -0.00068659       0.02731961      -0.00083710       0.00000000
Ce     -13.81461564      10.73645283     -14.02817050       0.02400277      -0.01306520      -0.00083710       0.00000000
Ce      -6.81016687       6.59558178     -14.02817050      -0.02331618      -0.01425441      -0.00083710       0.00000000
Ce     -13.81461564     -10.73645283      -8.68646187       0.02400277       0.01306520       0.00083710       0.00000000
Ce      -6.81016687      -6.59558178      -8.68646187      -0.02331618       0.01425441       0.00083710       0.00100000
Ce     -13.89849074      -2.59998667      -8.68646187      -0.00068659      -0.02731961       0.00083710       0.00000000
Ce     -13.89849074       2.59998667      -8.68646187      -0.00068659       0.02731961       0.00083710       0.00000000
Ce     -13.81461564      10.73645283      -8.68646187       0.02400277      -0.01306520       0.00083710       0.00000000
Ce      -6.81016687       6.59558178      -8.68646187      -0.02331618      -0.01425441       0.00083710       0.00100000
Ce      -9.20089986      10.73645283      -6.45662638      -0.02400277      -0.01306520      -0.00083710       0.00000000
Ce     -16.20534863       6.59558178      -6.45662638       0.02331618      -0.01425441      -0.00083710       0.00100000
Ce      -9.11702476       2.59998667      -6.45662638       0.00068659       0.02731961      -0.00083710       0.00000000
Ce      -9.11702476      -2.59998667      -6.45662638       0.00068659      -0.02731961      -0.00083710       0.00000000
Ce      -9.20089986     -10.73645283      -6.45662638      -0.02400277       0.01306520      -0.00083710       0.00000000
Ce     -16.20534863      -6.59558178      -6.45662638       0.02331618       0.01425441      -0.00083710       0.00000000
Se     -13.47055728     -10.34546570     -11.35731619       0.01357185       0.01327620      -0.00000000      -0.00000000
Se      -7.32080083      -6.49311206     -11.35731619      -0.01828346       0.00511547      -0.00000000      -0.00000000
Se     -13.73191514      -3.09344352     -11.35731619       0.00471160      -0.01839167      -0.00000000      -0.00000000
Se     -13.73191514       3.09344352     -11.35731619       0.00471160       0.01839167      -0.00000000      -0.00000000
Se     -13.47055728      10.34546570     -11.35731619       0.01357185      -0.01327620      -0.00000000      -0.00000000
Se      -7.32080083       6.49311206     -11.35731619      -0.01828346      -0.00511547      -0.00000000      -0.00000000
Se      -9.54495822      10.34546570      -3.78577206      -0.01357185      -0.01327620      -0.00000000      -0.00000000
Se     -15.69471467       6.49311206      -3.78577206       0.01828346      -0.00511547      -0.00000000      -0.00000000
Se      -9.28360036       3.09344352      -3.78577206      -0.00471160       0.01839167      -0.00000000      -0.00000000
Se      -9.28360036      -3.09344352      -3.78577206      -0.00471160      -0.01839167      -0.00000000      -0.00000000
Se      -9.54495822     -10.34546570      -3.78577206      -0.01357185       0.01327620      -0.00000000      -0.00000000
Se     -15.69471467      -6.49311206      -3.78577206       0.01828346       0.00511547      -0.00000000      -0.00000000
Se     -11.50775775     -11.66124938      -7.57154412       0.00000000      -0.02459630      -0.00000000      -0.00000000
Se      -7.16269863      -4.13538615      -7.57154412       0.02130102       0.01229815      -0.00000000      -0.00000000
Se     -15.85281687      -4.13538615      -7.57154412      -0.02130102       0.01229815      -0.00000000      -0.00000000
Se     -15.85281687       4.13538615      -7.57154412      -0.02130102      -0.01229815      -0.00000000      -0.00000000
Se     -11.50775775      11.66124938      -7.57154412       0.00000000       0.02459630      -0.00000000      -0.00000000
Se      -7.16269863       4.13538615      -7.57154412       0.02130102      -0.01229815      -0.00000000      -0.00000000
Se     -11.50775775      11.66124938       0.00000000       0.00000000       0.02459630      -0.00000000      -0.00000000
Se     -15.85281687       4.13538615       0.00000000      -0.02130102      -0.01229815      -0.00000000      -0.00000000
Se      -7.16269863       4.13538615       0.00000000       0.02130102      -0.01229815      -0.00000000      -0.00000000
Se      -7.16269863      -4.13538615       0.00000000       0.02130102       0.01229815      -0.00000000      -0.00000000
Se     -11.50775775     -11.66124938       0.00000000       0.00000000      -0.02459630      -0.00000000      -0.00000000
Se     -15.85281687      -4.13538615       0.00000000      -0.02130102       0.01229815      -0.00000000      -0.00000000
Se      -8.57864594      -8.33513060      -7.57154412      -0.02959078       0.01708424      -0.00000000      -0.00000000
Se     -11.50775775      -3.26176008      -7.57154412       0.00000000      -0.03416849      -0.00000000      -0.00000000
Se     -14.43686956      -8.33513060      -7.57154412       0.02959078       0.01708424      -0.00000000      -0.00000000
Se     -14.43686956       8.33513060      -7.57154412       0.02959078      -0.01708424      -0.00000000      -0.00000000
Se      -8.57864594       8.33513060      -7.57154412      -0.02959078      -0.01708424      -0.00000000      -0.00000000
Se     -11.50775775       3.26176008      -7.57154412       0.00000000       0.03416849      -0.00000000      -0.00000000
Se     -14.43686956       8.33513060       0.00000000       0.02959078      -0.01708424      -0.00000000      -0.00000000
Se     -11.50775775       3.26176008       0.00000000       0.00000000       0.03416849      -0.00000000      -0.00000000
Se      -8.57864594       8.33513060       0.00000000      -0.02959078      -0.01708424      -0.00000000      -0.00000000
Se      -8.57864594      -8.33513060       0.00000000      -0.02959078       0.01708424      -0.00000000      -0.00000000
Se     -14.43686956      -8.33513060       0.00000000       0.02959078       0.01708424      -0.00000000      -0.00000000
Se     -11.50775775      -3.26176008       0.00000000       0.00000000      -0.03416849      -0.00000000      -0.00000000
Se      -4.24727437       7.35649507     -14.53197393       0.00647275      -0.01121113      -0.02384644      -0.00000000
Se      -4.24727437      -7.35649507     -14.53197393       0.00647275       0.01121113      -0.02384644      -0.00000000
Se     -14.52096676       0.00000000     -14.53197393      -0.01294550      -0.00000000      -0.02384644      -0.00000000
Se     -18.76824113      -7.35649507      -0.61111432      -0.00647275       0.01121113       0.02384644      -0.00000000
Se     -18.76824113       7.35649507      -0.61111432      -0.00647275      -0.01121113       0.02384644      -0.00000000
Se      -8.49454874       0.00000000      -0.61111432       0.01294550      -0.00000000       0.02384644      -0.00000000
Se     -18.76824113      -7.35649507      -6.96042981      -0.00647275       0.01121113      -0.02384644      -0.00000000
Se     -18.76824113       7.35649507      -6.96042981      -0.00647275      -0.01121113      -0.02384644      -0.00000000
Se      -8.49454874       0.00000000      -6.96042981       0.01294550      -0.00000000      -0.02384644      -0.00000000
Se      -4.24727437       7.35649507      -8.18265844       0.00647275      -0.01121113       0.02384644      -0.00000000
Se      -4.24727437      -7.35649507      -8.18265844       0.00647275       0.01121113       0.02384644      -0.00000000
Se     -14.52096676       0.00000000      -8.18265844      -0.01294550      -0.00000000       0.02384644      -0.00000000
2
Lattice="3.628166 0.0 0.0 0.0 3.628166 0.0 0.0 0.0 3.628166" Properties=species:S:1:pos:R:3:REF_forces:R:3:magmoms:R:1 bandgap=0.0 e_per_atom_relaxed=-4.04802069 mp_id=mp-2778 REF_energy_per_atom=-4.042620475 ef_per_atom_relaxed=-4.04802069 corrected_total_REF_energy=-8.08524095 ef_per_atom=-0.3351515116666661 task_id=mp-911997 calc_id=0 ionic_step=0 pretrained=T config_weight=1.0 mace_descriptors head=pbe_mp REF_energy=-8.08524095 REF_stress="0.0006449528513804163 -0.0 -0.0 -0.0 0.0006449528513804163 -0.0 -0.0 -0.0 0.0006449528513804163" pbc="T T T"
Ho       1.81408300       1.81408300       1.81408300       0.00000000       0.00000000       0.00000000       0.00000000
Ag       0.00000000       0.00000000       0.00000000       0.00000000       0.00000000       0.00000000       0.00000000
12
Lattice="2.240048 -3.879876 0.0 2.240048 3.879876 0.0 0.0 0.0 24.715436" Properties=species:S:1:pos:R:3:REF_forces:R:3:magmoms:R:1 bandgap=0.42249999999999943 e_per_atom_relaxed=-3.948982603333333 mp_id=mp-23005 REF_energy_per_atom=-3.947545375 ef_per_atom_relaxed=-3.948982603333333 corrected_total_REF_energy=-47.3705445 ef_per_atom=-0.5090985766666667 task_id=mp-906986 calc_id=0 ionic_step=0 pretrained=T config_weight=1.0 mace_descriptors head=pbe_mp REF_energy=-44.4165445 REF_stress="-0.00019528978636810227 -0.0 -0.0 -0.0 -0.00019528968650395624 -0.0 -0.0 -0.0 -0.00033698498841557933" pbc="T T T"
Bi       2.24004800       1.29329459      14.39127936       0.00000000       0.00000000      -0.02942194       0.00000000
Bi       2.24004800      -1.29329459       4.04057834       0.00000000       0.00000000      -0.00311028       0.00000000
Bi       2.24004800       1.29329459      20.67485766       0.00000000       0.00000000       0.00311028       0.00000000
Bi       2.24004800      -1.29329459      10.32415664       0.00000000       0.00000000       0.02942194       0.00000000
Te       0.00000000       0.00000000      12.35771800       0.00000000       0.00000000       0.00000000       0.00000000
Te       2.24004800      -1.29329459      16.09543339       0.00000000       0.00000000       0.00652677       0.00000000
Te       2.24004800       1.29329459       8.62000261       0.00000000       0.00000000      -0.00652677       0.00000000
Te       0.00000000       0.00000000      18.97455924       0.00000000       0.00000000       0.05215576       0.00000000
Te       0.00000000       0.00000000       5.74087676       0.00000000       0.00000000      -0.05215576       0.00000000
Te       2.24004800       1.29329459       1.99789698       0.00000000       0.00000000      -0.03013127       0.00000000
Te       2.24004800      -1.29329459      22.71753902       0.00000000       0.00000000       0.03013127       0.00000000
Pb       0.00000000       0.00000000       0.00000000       0.00000000       0.00000000       0.00000000       0.00000000
4
Lattice="0.0 3.72175417 3.72175417 3.72175417 0.0 3.72175417 3.72175417 3.72175417 0.0" Properties=species:S:1:pos:R:3:REF_forces:R:3:magmoms:R:1 bandgap=0.0 e_per_atom_relaxed=-2.9229083325 mp_id=mp-864747 REF_energy_per_atom=-2.9226386375 ef_per_atom_relaxed=-2.9229083325 corrected_total_REF_energy=-11.69055455 ef_per_atom=-0.19698598083333296 task_id=mp-864747 calc_id=0 ionic_step=0 pretrained=T config_weight=1.0 mace_descriptors head=pbe_mp REF_energy=-11.69055455 REF_stress="-0.00041437787281435785 -0.0 -0.0 -0.0 -0.00041437787281435785 -0.0 -0.0 -0.0 -0.00041437787281435785" pbc="T T T"
Ho       1.86086964       1.86086964       1.86086964       0.00000000       0.00000000       0.00000000       0.00000000
Mg       5.58263870       5.58263870       5.58263870       0.00000000       0.00000000       0.00000000       0.00000000
Tl       3.72175417       3.72175417       3.72175417       0.00000000       0.00000000       0.00000000       0.00000000
Tl       0.00000000       0.00000000       0.00000000       0.00000000       0.00000000       0.00000000       0.00000000
41
Lattice="6.05592325 0.00268147 -0.22287961 -0.00579166 8.78043172 0.17726834 -0.19865025 0.26952025 13.00728716" Properties=species:S:1:pos:R:3:REF_forces:R:3:magmoms:R:1 bandgap=0.7332000000000001 e_per_atom_relaxed=-4.428180529512194 mp_id=mp-1234473 REF_energy_per_atom=-4.428180529512195 ef_per_atom_relaxed=-4.428180529512194 corrected_total_REF_energy=-181.55540170999998 ef_per_atom=-0.6974383326829267 task_id=mp-1234473 calc_id=0 ionic_step=2 pretrained=T config_weight=1.0 mace_descriptors head=pbe_mp REF_energy=-170.56340171 REF_stress="-0.0003436831325906213 -2.407175307597648e-05 2.4236597573500184e-05 -2.407175307597648e-05 -0.0004361809184626944 -6.937218316448923e-05 2.4236597573500184e-05 -6.937218316448923e-05 -0.00037483388048699205" pbc="T T T"
Mg       0.40503352       7.41616015       4.42610629       0.00483020      -0.00323391      -0.00105870       0.00000000
Ag       1.89108224       5.99861032       1.68872165      -0.00737343      -0.00073583       0.01177435       0.00000000
Ag       4.29722574       6.84572351       8.14707322       0.00517119      -0.00360676      -0.00809084       0.00000000
Ag       0.16623486       4.39124799      12.97583801      -0.00589572      -0.00255068      -0.00002335      -0.00000000
Ag       2.77537895       0.15519747       6.31715564      -0.00553117       0.00073891       0.00096522       0.00000000
Ag      -0.02824555       1.52684063       8.81023085       0.03890919      -0.01608313      -0.01413158       0.00000000
Ag       2.78213611       5.64626201      10.97291285       0.02117282      -0.00049165       0.00193036       0.00000000
Ag       5.66264599       8.90236696       6.45406096      -0.00642379      -0.00035266      -0.00739297       0.00000000
Ag       3.25683736       3.50366161       1.53703260      -0.00547860       0.00800103       0.01496516       0.00000000
Ag       3.18411864       8.78897857       3.01112714       0.00401031      -0.00576145      -0.01159115       0.00000000
Ag       5.69366160       4.13752659       2.84888585      -0.00608747      -0.00303819       0.00413940       0.00000000
Ag       2.74701407       8.92729432       9.83728323       0.00178537      -0.01116605       0.00433199       0.00000000
Ag       0.08915990       4.53997417       9.60204333       0.01554878       0.00487577       0.00920538       0.00000000
Ag       2.95105646       8.82618411      13.00647253      -0.00293171       0.01811530      -0.01300527       0.00000000
Ag       0.02116566       4.91803247       6.45962306      -0.01105963       0.00093026       0.00455072       0.00000000
Ag       1.52816236       2.43061309      11.23921814       0.00865164       0.00219558      -0.00196415       0.00000000
Ag       1.31414120       6.93279998       8.18569931      -0.00494327       0.00845322      -0.00608715       0.00000000
Ag       4.52603003       5.97491396       1.12072240      -0.01110206       0.00612135       0.00000370       0.00000000