LAMMPS data file via write_data, version 28 Mar 2023, timestep = 300000, units = metal

1001 atoms
2 atom types

0 20.41714 xlo xhi
0 20.41714 ylo yhi
0 20.41714 zlo zhi

Masses

1 6.941
2 18.9984032

Atoms # atomic/kk

44 1 1.9764884241070033 6.065000394813898 20.4143937762245 0 0 -1
204 1 6.245615188558297 2.0601668280423393 20.334716139014468 0 0 -1
6 2 2.0376010959972817 1.9474165677340822 1.9418814389212615 0 0 0
12 1 1.8960303396952294 1.9751297925114766 3.9339964640075142 0 0 0
14 2 2.0963356250453278 2.101453400876184 6.209229344119 0 0 0
43 1 1.9258375188539512 3.999434165765616 2.0658317865432263 0 0 0
46 2 1.9042395338811393 6.073203397280612 2.146928475307081 0 0 0
51 1 2.0563804024966363 4.234602157751323 6.206453264749849 0 0 0
52 1 2.053494177395835 6.208359455214351 4.056863951829687 0 0 0
53 2 2.070472224333956 4.00842645778203 4.080588549543022 0 0 0
54 2 2.0367990484377168 6.191715684655757 6.0734928345756884 0 0 0
202 1 4.244804087772434 2.1166889922326795 1.9404388939834147 0 0 0
206 2 6.085955327710656 1.9785448797121743 1.7982605936647804 0 0 0
210 1 4.093521604899827 1.9634520171920133 6.092064795272939 0 0 0
212 1 5.855263618878572 2.0531002699745735 3.8430149908535114 0 0 0
214 2 5.995154775782678 1.9525080374680097 6.11960526493623 0 0 0
216 2 3.904262246260096 2.077842007514734 4.124020890459094 0 0 0
242 1 3.886629666836678 6.113279008277936 2.0261312851016173 0 0 0
243 1 5.863425724322528 4.203491427627537 1.9814466952569658 0 0 0
246 2 6.088885475011249 6.040254149525822 1.9803273550730285 0 0 0
247 2 4.065731775459793 4.129928359212898 2.0034382475407466 0 0 0
249 1 3.9401724358475105 3.930956134323001 4.061251321548376 0 0 0
250 1 3.8760842799680866 6.211005273131292 6.038231306724506 0 0 0
251 1 6.048252371747768 3.894967766525745 6.285486926549499 0 0 0
252 1 5.926164097191405 5.873247554686655 4.064422092054241 0 0 0
253 2 5.881193387732471 3.8943985557225917 4.054833224727422 0 0 0
254 2 6.266639637516922 5.9723205915079935 6.111583849986895 0 0 0
255 2 4.163140553084 4.335076781094847 6.107577467899663 0 0 0
256 2 4.1562021543951495 6.086228957376346 3.91843237008008 0 0 0
207 2 4.028330100441599 20.39612770329568 2.0044182045963037 0 -1 0
11 1 1.794033148852244 0.22575940882285633 6.113784508574076 0 0 0
16 2 0.041048387948295476 2.104327746553407 4.077172256043537 0 0 0
2 1 0.004193233173533722 1.9808688528549419 1.9729998372814161 0 0 0
5 2 2.054513867323185 0.023109182542064843 0.08066837293435435 0 0 0
1 1 0.07181476402548494 0.008546469852875195 0.13985633556099877 0 0 0
444 1 10.284024714051027 6.072097666669422 20.27504320181134 0 0 -1
648 2 12.24019606369932 6.034763312598216 20.215999167712496 0 0 -1
402 1 7.99904514337286 2.087927168988705 2.058839880326501 0 0 0
406 2 10.083065143065527 2.0517601606424902 1.9223171007724589 0 0 0
641 1 12.2123274746006 3.971217471337048 20.22826032700044 0 0 -1
410 1 8.113338727096188 1.8628452056197595 6.255506919304721 0 0 0
445 2 10.193027766154048 4.110346485361755 0.012701966739438842 0 0 0
412 1 10.124199061587646 2.104542580892862 3.935410602144221 0 0 0
404 1 10.183114969469502 1.7019223918882647 0.01729358858246144 0 0 0
414 2 10.188696897686965 1.973560140059258 6.120657017227334 0 0 0
416 2 8.010441548865987 2.1500162652134844 4.097222658740552 0 0 0
442 1 8.224829953290879 6.119996640923812 2.0005704031015044 0 0 0
443 1 10.152970619029519 3.9671718433707244 1.9641468395002883 0 0 0
446 2 10.254784921260596 6.137034249864788 2.103651429032618 0 0 0
447 2 7.920666197258899 4.206897902920206 1.9841055604828142 0 0 0
449 1 7.913327137187952 4.046641491369484 4.199759935258121 0 0 0
450 1 8.10667672697041 5.857211188643111 6.143746841084896 0 0 0
451 1 10.285957580493065 4.195823157084572 6.064950640494603 0 0 0
452 1 10.097720305757917 5.963404031492544 4.163638070587478 0 0 0
453 2 10.253109936835573 3.8709061789259467 4.039057761441184 0 0 0
454 2 10.259181472456989 6.175870651240845 6.082790157834584 0 0 0
455 2 8.069142777819025 3.854818210767053 6.078125900300117 0 0 0
456 2 8.14257760727042 6.022047681261151 4.245531997021353 0 0 0
602 1 12.289637670387666 1.9131875569187624 2.029573807156839 0 0 0
610 1 12.235000476664625 2.0101392747188633 6.022923897548398 0 0 0
616 2 12.096537934454535 2.1230790780251314 4.067611544925089 0 0 0
642 1 12.175884514959007 5.959465605011811 2.0166989284379317 0 0 0
647 2 12.360240327463856 4.0672655140298195 2.0939713405658735 0 0 0
649 1 12.194171904776512 4.253150741166906 3.9754294476884304 0 0 0
650 1 12.178920181471618 6.176606972321173 6.074302239484966 0 0 0
655 2 12.246410633682228 4.195018119453611 6.086183308417249 0 0 0
656 2 12.22200655178467 6.121112256186726 3.8239311342809845 0 0 0
403 1 10.077205656973229 0.10645253552571353 2.1504840805314767 0 0 0
411 1 10.31088951189382 0.18220386172652966 5.978284472960029 0 0 0
407 2 8.160425488577065 0.10093931307335899 2.1942531836979766 0 0 0
48 2 0.04605702935497448 6.4266557797110435 20.40707722823377 0 0 -1
56 2 0.11167570765405065 6.1249107025399825 4.037299988982767 0 0 0
49 1 0.060687726234593564 3.93169322657318 3.8832266678359764 0 0 0
47 2 20.370079987953947 3.956020209789096 1.8666018916232745 -1 0 0
10 1 0.020921322694068323 2.2319793793626292 6.1195836108474415 0 0 0
50 1 0.06456582286688625 6.0398031940113475 6.057224707790278 0 0 0
55 2 0.006454641112465964 4.037954478952618 6.084334495443146 0 0 0
644 1 14.24147981684736 5.998364123751854 0.022264553356133393 0 0 0
42 1 20.40468387294607 6.213413917244369 2.1186655334969564 -1 0 0
606 2 14.290474516604483 2.0146892672762147 1.9745527272383938 0 0 0
612 1 14.178173682855439 2.0677750449997006 4.064837602320609 0 0 0
614 2 14.191717082861306 2.206933257738552 6.038423172352207 0 0 0
604 1 14.279408480829046 1.8714211141716572 0.02070138232818053 0 0 0
643 1 14.524503157072292 4.115772572125146 1.98257611388002 0 0 0
845 2 18.327653622111306 4.2044156963284856 20.351179671204594 0 0 -1
646 2 14.384496108309891 6.003128787979923 1.9977843964967963 0 0 0
651 1 14.383302488205345 4.06693190993975 5.857645617226826 0 0 0
652 1 14.249650805750912 6.209993757295952 4.075183598159588 0 0 0
653 2 14.365384337401643 4.143700287727249 4.076512448787328 0 0 0
1001 1 20.235631557347972 4.21071669805911 20.38331054328954 0 0 0
654 2 14.504680455568122 6.2689965912202785 5.903517563031307 0 0 0
848 2 16.448172379007296 6.05105556991668 0.08767388834420999 0 0 0
802 1 16.366674238526468 1.8016224924171724 2.025573763762978 0 0 0
806 2 18.238235191193514 1.8994010342168077 2.111566185212824 0 0 0
810 1 16.407659439533084 2.316277383832589 6.110324949847258 0 0 0
812 1 18.434392635339755 2.110752036650526 3.956354422633576 0 0 0
814 2 18.319829187938275 2.1625034632734588 5.936293668744897 0 0 0
816 2 16.285434065076583 2.083093351602648 4.068344617076134 0 0 0
842 1 16.243031451466365 5.889075357651997 2.0440489551724954 0 0 0
843 1 18.42268685788277 4.1505022248675045 2.047812311640573 0 0 0
846 2 18.261033379729202 6.1613491545128865 2.1567534993742297 0 0 0
847 2 16.413543870407878 3.966644425148062 2.1345314710110683 0 0 0
849 1 16.541768546764583 3.970229012029177 3.9927535450769382 0 0 0
850 1 16.406397487041524 6.005266966077311 6.000619147130249 0 0 0
851 1 18.342269838108134 3.958873485129903 5.990250436511719 0 0 0
852 1 18.517529074532924 6.1126344067421785 4.09852358528376 0 0 0
853 2 18.471789176250173 4.059495337782293 3.937900466971103 0 0 0
854 2 18.361073523451598 6.000617045223793 6.2223316633159405 0 0 0
855 2 16.403570412884157 4.078116421590609 6.198754025041284 0 0 0
856 2 16.36269345002456 6.218353054209838 4.026123486497305 0 0 0
807 2 16.232753442913804 20.158248142745737 2.175173939582159 0 -1 0
803 1 18.039322167465496 20.156423680181973 2.15776383028032 0 -1 0
605 2 14.325811235707478 0.06827996969283515 20.33129811563298 0 0 -1
815 2 16.339495338630307 20.337777986433494 6.229584134559917 0 -1 0
811 1 18.265335052433336 0.03369315699318065 6.343946976581185 0 0 0
15 2 20.21709990104864 0.3020164569255042 6.046245681950754 -1 0 0
285 2 6.02909586815559 8.248594597473865 20.360440961476336 0 0 -1
321 1 4.0574684499953335 12.266019211450507 0.023576466853905843 0 0 0
121 1 20.32479388626718 12.268304261934636 0.3208191576470593 -1 0 0
83 1 2.03578849108782 8.192005050286948 2.040623765616128 0 0 0
86 2 2.1115746153112718 10.140062685603104 2.0151715535984573 0 0 0
91 1 1.9836644190113397 8.37078803605198 5.918604937183733 0 0 0
92 1 2.0395658540546058 10.20400151379028 4.216239128709186 0 0 0
93 2 1.9399294560047602 8.106689848354963 4.069674740491845 0 0 0
94 2 2.0359592543922553 10.323164877540417 6.057041548562913 0 0 0
123 1 2.0680735048320855 12.31486345484632 2.2741892213043413 0 0 0
131 1 2.051034859692744 12.354638576721593 6.21215801400144 0 0 0
133 2 2.064449334396059 12.399497940621025 4.112786269724074 0 0 0
282 1 4.310893288488926 10.122806216984808 2.014077624102792 0 0 0
283 1 6.306509528470082 7.96537001175398 2.067340042881922 0 0 0
286 2 6.262369629542038 9.988520290421778 2.1301440346162286 0 0 0
287 2 4.036341046344298 8.121199247266508 2.0253513946931654 0 0 0
289 1 4.121519956622645 8.07286208252066 4.159385228302999 0 0 0
290 1 4.155515030039753 10.234678299221486 6.0867806901955825 0 0 0
291 1 6.294526745745102 7.9092994799189364 6.316828905479402 0 0 0
292 1 6.044016483327463 9.96237101846846 4.105891327241942 0 0 0
293 2 6.072602049106497 8.17023597772752 4.105953170603097 0 0 0
294 2 6.187419869469926 10.392719688505993 6.04570443048255 0 0 0
295 2 4.07419185976122 8.261913643536584 6.28041731767907 0 0 0
296 2 4.0712755288240405 10.123756044649275 4.18756591721393 0 0 0
323 1 6.086927269147293 12.24828433482562 2.177136627878438 0 0 0
327 2 4.122139631149505 12.185335776412321 2.124891078337099 0 0 0
329 1 4.082115747473088 12.23140302961975 3.9302126418552517 0 0 0
331 1 6.21454299780612 12.202722377000384 6.20738874962978 0 0 0
333 2 6.084294840671507 12.281647464040287 3.984403762782477 0 0 0
335 2 4.115056275773278 12.134830405878885 6.106770944736885 0 0 0
129 1 0.23818204510621002 12.325273392916422 4.144147068675786 0 0 0
127 2 20.369346499412707 12.23171946578776 2.04711221850002 -1 0 0
681 1 12.360445630035938 8.166125304446691 0.07117800601118615 0 0 0
525 2 10.343109826840992 12.304186149673827 20.35205178781186 0 0 -1
688 2 12.27470398352184 10.180814580493628 0.04216899389478393 0 0 0
482 1 8.083778633161481 10.294592690050623 1.9925776496860799 0 0 0
483 1 10.176221808815221 8.179475193395724 2.003822110470166 0 0 0
486 2 10.130532758350974 10.109429520071453 1.8960892712530042 0 0 0
487 2 8.31507924124488 7.937473422279067 1.9828449991413295 0 0 0
489 1 8.427011108670754 8.03983749989815 3.9777584034293327 0 0 0
490 1 8.093221163093402 10.344420446939118 5.982136564544189 0 0 0
491 1 10.276057131508097 8.149220098556793 6.131509158752019 0 0 0
492 1 10.029690302295469 10.135208670398685 4.0579156593668255 0 0 0
493 2 10.201916275059233 8.143460049058437 4.261555889828972 0 0 0
494 2 10.126072453650593 10.350029152106353 6.219038304655854 0 0 0
495 2 8.241525670547333 8.023074392514033 6.210494865978107 0 0 0
496 2 8.032244451459276 10.312211432543522 3.980876558636289 0 0 0
523 1 10.305826962022923 12.165844271696542 1.9941742912568987 0 0 0
527 2 8.032018235728202 12.172124326832263 2.0250703014717724 0 0 0
529 1 8.060894501229871 12.3284704682599 4.258134011291382 0 0 0
531 1 10.223575108613073 12.207179466617228 6.073240464261789 0 0 0
533 2 10.268200145702016 12.131031684886969 4.177000802401676 0 0 0
535 2 8.18305497198554 12.297686353072955 6.223006492999397 0 0 0
682 1 12.275413252346182 10.264221843228395 2.119003229852068 0 0 0
687 2 12.113382650691497 8.180458862873927 2.038814448568437 0 0 0
689 1 12.081128276913747 8.03549337505234 4.017145632244605 0 0 0
690 1 12.427986551747303 10.344115392502626 6.0458101604592525 0 0 0
695 2 12.249392893586823 8.154364524341272 5.978540009628034 0 0 0
696 2 12.360912587768388 10.197855660831173 4.044648334130528 0 0 0
727 2 12.252977631352056 12.26529369134228 2.208892847269819 0 0 0
729 1 12.240852932140662 12.16805617836582 4.200749731550544 0 0 0
735 2 12.417278370459881 12.227775627036491 6.131544499610009 0 0 0
881 1 16.17815289963253 8.260078683424252 0.24633737351947527 0 0 0
81 1 20.410106710976592 8.262604227680399 0.07361230537958571 -1 0 0
925 2 18.24605192966158 12.103066776759201 0.06069264491227843 0 0 0
888 2 16.279629951555112 10.138711047537702 0.13866869315321326 0 0 0
921 1 16.316626638360493 12.00933956853154 20.360943528599925 0 0 -1
885 2 18.141798156490303 8.243055871483111 0.007735151217911351 0 0 0
135 2 20.38116709833075 12.123696374543396 6.156792516431549 -1 0 0
82 1 20.242131668492426 10.250356396859537 2.1244610019528065 -1 0 0
96 2 20.335149535802554 10.337576941625226 3.9776750759965895 -1 0 0
685 2 14.225528256092161 8.165366079267923 0.12009453178500097 0 0 0
87 2 20.325274126311953 8.19942733384319 2.0946393303633415 -1 0 0
90 1 20.355015597081525 10.191625430136433 6.203334559307559 -1 0 0
95 2 0.019133140581308095 8.301972755966906 6.021670890014068 0 0 0
89 1 0.0007975607482457127 7.91236870864278 3.9825022561292256 0 0 0
684 1 14.422741400267132 10.26737251290799 0.19371458038196943 0 0 0
884 1 18.14441592521784 10.25925946873137 0.12356565414814094 0 0 0
882 1 16.536367637201565 10.169843538546502 2.2320980708098563 0 0 0
883 1 18.208709130622587 8.20132920044501 2.1328528506117825 0 0 0
886 2 18.387760879238982 10.123209928938836 2.080865060046398 0 0 0
887 2 16.32125864357293 8.168637638009203 2.1751107410343087 0 0 0
889 1 16.260295894715682 8.12413656505422 4.020754697222978 0 0 0
890 1 16.396156366660207 10.371997839708301 6.28907677235783 0 0 0
891 1 18.463669572018237 8.162638119790293 6.179107803016294 0 0 0
892 1 18.52995206527559 10.271651166712658 4.269496102382123 0 0 0
893 2 18.475174928336536 8.234205632476613 4.078757745437907 0 0 0
894 2 18.467839970938243 10.136552024882608 6.394790557098002 0 0 0
895 2 16.287623312130656 8.149852533132083 6.035572169291086 0 0 0
896 2 16.485340272169726 10.204610385885363 4.1477948703984495 0 0 0
923 1 18.485926865311214 12.065723690982086 2.2299138357769834 0 0 0
927 2 16.56119324843806 12.098357182770686 1.867843994059084 0 0 0
929 1 16.455225627545524 12.357631790874796 4.088151349692561 0 0 0
931 1 18.22618176873532 12.316700282763511 6.0779022590673835 0 0 0
933 2 18.37515453168058 12.28238680743466 4.252431703987739 0 0 0
935 2 16.266650175010408 12.369073308415144 6.295632237392785 0 0 0
683 1 14.129249794816696 8.22424588777497 2.0387115344283986 0 0 0
686 2 14.152940821274784 10.16461409844637 2.2636359977709457 0 0 0
691 1 14.448505999329095 8.155072149954899 5.9856789722562045 0 0 0
692 1 14.379843207630255 10.168041568160971 4.0756998248606475 0 0 0
693 2 14.355885254489609 8.14179897176247 3.890825204293122 0 0 0
694 2 14.43053867184972 10.23714191486618 6.157067021694367 0 0 0
723 1 14.235132371638807 12.183659425160961 2.23432365413245 0 0 0
731 1 14.451725582170992 12.484810992551134 6.105183848589869 0 0 0
733 2 14.402598676612405 12.206876947551164 4.066109787321124 0 0 0
205 2 5.947812793579408 20.390518681342524 20.39626860190113 0 -1 -1
215 2 3.9111320772559592 0.05727460486591571 6.183060572369737 0 0 0
213 2 6.083708479906994 0.005797438284462075 4.126427156615316 0 0 0
13 2 2.142872767242948 0.03302186097623262 4.0698107894621955 0 0 0
201 1 4.060191838745298 0.05922218233520624 0.048050218218568815 0 0 0
203 1 6.254667245533148 20.339809431162454 1.8818230660907862 0 -1 0
3 1 2.1038294417609356 0.12509505693555423 1.967731784888064 0 0 0
328 2 4.1257659972449465 14.344321099197748 0.016230363251163483 0 0 0
371 1 6.109635060337074 16.37967932398344 6.019898029827813 0 0 0
211 1 6.101232175262711 20.371163052577327 5.95909250251318 0 -1 0
209 1 4.039046134873173 20.389859378170968 3.897612657068885 0 -1 0
124 1 1.910769708971618 14.136287109170024 0.041699256999562964 0 0 0
130 1 0.07774157912653466 14.51999842759246 6.180352648539246 0 0 0
372 1 6.0787463096454175 18.38288645235023 4.0517623179822095 0 0 0
373 2 6.207976019660571 16.44426519426564 3.9633110115822707 0 0 0
374 2 6.163294673893171 18.31588679262416 6.1155982068991515 0 0 0
375 2 4.052429548114259 16.47537435419179 6.050704436598337 0 0 0
136 2 20.27483380193396 14.260945683145703 4.179137520212483 -1 0 0
376 2 3.965943631231158 18.364134917393347 3.9887206484925573 0 0 0
167 2 0.14171744430307248 16.208505467606834 1.9730035675657307 0 0 0
169 1 20.334475728318907 16.348100313589597 3.859735658188782 -1 0 0
175 2 0.13191623385819942 16.488949061211937 6.215881037079124 0 0 0
365 2 6.124098260273109 16.33080053525537 20.342512663067787 0 0 -1
162 1 20.300689048447513 18.516773171700155 2.2444844297154036 -1 0 0
126 2 1.9566983451157631 14.23212529132872 2.0813448523188276 0 0 0
132 1 2.036397610989822 14.456982845243612 3.950377092089464 0 0 0
134 2 1.9164050316427834 14.279846487627278 6.073201715887614 0 0 0
163 1 2.0874510183194284 16.33059760553835 1.9672063502405965 0 0 0
166 2 1.8782436125986472 18.407849820639143 1.913867308288649 0 0 0
171 1 2.06021966064115 16.28755144304816 6.0967705154235174 0 0 0
172 1 1.992892540950302 18.63948117634216 3.911583500315767 0 0 0
173 2 2.159728410623883 16.299027445884086 4.081225092160679 0 0 0
174 2 2.0117199292077412 18.4403292700091 6.136362198690814 0 0 0
322 1 4.214987882212587 14.314592599833887 1.8291064522825882 0 0 0
326 2 5.997766058604569 14.095299324598082 2.077163312074606 0 0 0
330 1 4.056853666659091 14.208368380134756 5.9295472828073 0 0 0
332 1 6.077331412884969 14.041095214884605 4.108338447279992 0 0 0
334 2 6.042622052032488 14.276128024725898 6.042850128420515 0 0 0
336 2 4.121792785170073 14.25460477866793 4.143141702523382 0 0 0
362 1 3.975701479486692 18.292770810989424 2.1596993320101374 0 0 0
363 1 6.2004949162186955 16.354064104369154 2.0843603647138407 0 0 0
366 2 6.186731634235719 18.317496468754488 2.074632767335361 0 0 0
367 2 4.086705072164461 16.219531454380295 2.115933105484659 0 0 0
369 1 3.968242287708168 16.134213081688895 4.2232504768912325 0 0 0
370 1 4.093179512407443 18.43869571406222 6.187286953798756 0 0 0
405 2 10.17209558569267 20.27192681637428 0.15819195944273048 0 -1 0
409 1 8.244677507791422 0.04009647645846447 4.175834332711497 0 0 0
415 2 8.151626879623652 0.12324319567512956 6.067447358465087 0 0 0
601 1 12.232405562864376 0.004287050952094974 0.187889400149565 0 0 0
607 2 12.2005781701689 0.022931244588360863 2.067563158781265 0 0 0
609 1 12.246853780922013 0.08874994384393635 4.016298861907457 0 0 0
413 2 10.205718241934214 20.29692777918103 4.051441253005266 0 -1 0
524 1 10.429919261086422 14.269142152605285 0.10552238574914445 0 0 0
615 2 12.279410932617123 20.29742576566819 6.162918257927085 0 -1 0
564 1 10.299374552667787 18.274959208509372 0.10601829196855288 0 0 0
768 2 12.284343158526754 18.36129547331068 0.05210361101015497 0 0 0
522 1 7.895551300475969 14.311804496138311 1.7787594320643059 0 0 0
526 2 10.16203824865842 14.250649983567849 2.0431294654906793 0 0 0
530 1 8.149754702247758 14.33693902077766 6.357626097346848 0 0 0
532 1 10.13019423382191 14.371866333281607 3.9617475543051266 0 0 0
534 2 10.149038965139116 14.506801015703548 6.15034869843197 0 0 0
536 2 8.182648718356358 14.244118236277425 4.113219539324513 0 0 0
562 1 8.045012773079533 18.27644612953375 2.0666396502127347 0 0 0
563 1 10.013559865920275 16.2468147022847 2.0331874608187546 0 0 0
566 2 10.199764782053025 18.379465095069392 2.003655744173256 0 0 0
567 2 8.239936794644814 16.380473362055834 2.105811178659797 0 0 0
569 1 8.143071325616464 16.379506065811515 4.147781988860024 0 0 0
570 1 8.176243044670613 18.26064633657809 6.197525545462615 0 0 0
571 1 10.362037058871158 16.47828936433842 6.331423602868974 0 0 0
572 1 10.228416752972235 18.316076540607956 3.914492475624928 0 0 0
761 1 12.326262860119098 16.21126853742642 0.1389129895586556 0 0 0
573 2 10.263204350702585 16.3381810697494 4.168161740864439 0 0 0
574 2 10.21026601891827 18.48196021557718 6.161518332192352 0 0 0
575 2 8.130690460372525 16.353832261671684 6.056704121717632 0 0 0
576 2 8.231272130827541 18.47058127958869 4.019676693146797 0 0 0
722 1 12.124256672840596 14.34400509523705 2.034091876072542 0 0 0
730 1 12.175654636287845 14.348796441153779 6.011859790047461 0 0 0
736 2 12.290433688476254 14.378414037673737 4.22133449129457 0 0 0
762 1 12.178117095577793 18.374951949065878 2.0866801740677605 0 0 0
767 2 12.175998191038458 16.082565488997787 2.2238163508265045 0 0 0
769 1 12.271773474323394 16.430657221547587 4.2370970278913775 0 0 0
770 1 12.206044666235558 18.433194403868082 6.369503051991233 0 0 0
775 2 12.26115442721431 16.445351418202 6.2532828273451715 0 0 0
776 2 12.296382629692001 18.14363836410151 4.069612794964808 0 0 0
801 1 16.568828847897375 0.1441968941059191 0.2108889839994194 0 0 0
809 1 16.384473357113485 20.395831300314864 4.073420890978633 0 -1 0
603 1 14.485278753108892 20.36928771071251 2.073287585035865 0 -1 0
7 2 0.17183075108822657 20.307884090342828 2.0242159297331677 0 -1 0
9 1 0.0744968756452332 20.369994733140814 4.274614207785063 0 -1 0
122 1 20.361860604628163 14.239856035891322 1.9792384958338565 -1 0 0
176 2 20.386638568330554 18.480925848622903 4.113392438952783 -1 0 0
813 2 18.321654432021084 20.369026214425926 4.065517752550423 0 -1 0
613 2 14.171077508284743 20.315812021364387 4.075315915214866 0 -1 0
611 1 14.113417340459451 20.197492970037473 6.08306993091185 0 -1 0
962 1 16.116217076621385 18.308848414006185 1.9499222430801844 0 0 0
963 1 18.388134576707312 16.283577005281842 1.9273822575524944 0 0 0
765 2 14.306742768164947 16.136843192530264 0.11070838933515932 0 0 0
966 2 18.256771257519112 18.230903189028258 2.10316610862572 0 0 0
967 2 16.28529511445185 16.199729078831947 2.1597633766023545 0 0 0
969 1 16.280744604222637 16.393561491267796 4.084928961945132 0 0 0
924 1 18.27858533595478 14.200124683557597 0.006819686175113304 0 0 0
970 1 16.46520946393478 18.42589214876766 5.911387360057625 0 0 0
764 1 14.275693511859828 18.282000176823626 20.239545695209138 0 0 -1
971 1 18.132508119061796 16.397294578841255 6.136339696831961 0 0 0
972 1 18.382404091208013 18.37518018385158 4.146367135954622 0 0 0
973 2 18.31147917480824 16.46983105337042 4.242423216059589 0 0 0
974 2 18.317698505575205 18.373768583334073 6.257693996828177 0 0 0
975 2 16.264966089204023 16.37542553359019 6.02520602262099 0 0 0
976 2 16.431193246279424 18.262066833295016 4.149128289179471 0 0 0
726 2 14.220303778345803 14.104244229444701 2.1337662864506006 0 0 0
732 1 14.304357906058979 14.565401482524816 3.986631035210903 0 0 0
968 2 16.25079375637783 18.360057969008036 0.06268033171766484 0 0 0
734 2 14.207630371487125 14.445355482850108 6.196155992490899 0 0 0
964 1 18.48340710549853 18.3318693203545 20.350331011095452 0 0 -1
763 1 14.304484925039025 16.444199965411034 2.1772576423723238 0 0 0
766 2 14.278061339944527 18.403561656321074 1.8060791834350711 0 0 0
771 1 14.396900789193253 16.28818858299062 6.306188625421699 0 0 0
772 1 14.106616809547239 18.37966195646474 4.315868863622465 0 0 0
773 2 14.3354500686543 16.276070528277966 4.0027866665765925 0 0 0
774 2 14.433228006889953 18.53371435288192 6.149212987337084 0 0 0
922 1 16.37899157721922 14.142031565618899 2.1795234095212206 0 0 0
926 2 18.322039559651387 14.207798318502935 2.230023351481608 0 0 0
930 1 16.358943078923605 14.38189479120379 6.1313917752034035 0 0 0
932 1 18.36099446937304 14.543673223963724 4.1934548951578465 0 0 0
934 2 18.287360236096795 14.462341674563806 6.008962476318911 0 0 0
936 2 16.263684869865752 14.310012701243247 4.1279715814150615 0 0 0
170 1 0.11563602466286095 18.216964383841237 6.23182298999527 0 0 0
29 2 2.0940342047039953 0.09627929518689161 12.12662244675356 0 0 0
25 1 0.16277275225368015 20.3534786133721 12.400000086081317 0 -1 0
68 1 2.1327914010271445 5.969335690004939 12.330813620726541 0 0 0
69 2 2.072308659320375 4.005030568786379 12.316110346511204 0 0 0
218 1 4.069138522515175 2.0813079713239473 10.235583719695295 0 0 0
220 1 5.8930967718175715 1.8773910774882865 8.15945483769275 0 0 0
222 2 5.938251814767636 1.8621822725837713 10.375905412553399 0 0 0
224 2 4.134327772325432 2.3179077656006215 8.174010029050876 0 0 0
228 1 6.057567976278545 1.9072738166877603 12.320328205446414 0 0 0
17 1 20.24591221047556 0.25524094706466405 8.159190375777927 -1 0 0
32 2 0.11303278284327387 1.9953863399762235 12.251211751283694 0 0 0
65 1 20.30078114996425 3.9352714126255814 12.256876446849654 -1 0 0
58 1 0.06998403283873786 6.083843136800935 10.416363861642798 0 0 0
217 1 4.20180405549841 20.251299572417867 8.547258786779954 0 -1 0
223 2 4.060328460955899 0.08777214730044221 10.327676948649273 0 0 0
229 2 6.051194899521819 20.307681911571102 12.401432923981947 0 -1 0
232 2 4.016297485192993 2.110138820140056 12.413863359882013 0 0 0
257 1 3.9789749066933124 4.436874130111531 8.151285960213285 0 0 0
258 1 4.218601901064399 6.176938999764312 10.206610042177008 0 0 0
259 1 6.08219589587891 4.013234677818179 10.336864270320044 0 0 0
260 1 6.075901865443924 6.134617864704255 8.183857893392583 0 0 0
261 2 6.115107770188684 4.185349495019129 8.274407459538974 0 0 0
262 2 6.086841581151646 6.0059614690872545 10.294302550606375 0 0 0
263 2 3.9928040815820696 4.19643230905617 10.29659889106638 0 0 0
264 2 4.10804837191122 6.172921484797155 8.121718571824712 0 0 0
265 1 4.053541426966194 4.003203646940564 12.40536790175001 0 0 0
268 1 6.140775856596408 6.16599453121151 12.419764442491893 0 0 0
24 2 0.07288611562912507 2.111620141161939 8.27019775961971 0 0 0
72 2 0.07285915130546804 6.126186594800361 12.222890503062304 0 0 0
225 1 3.989111064214296 20.241606144386477 12.143959882263475 0 -1 0
57 1 0.003715781646679517 4.103788893403618 8.192979244725482 0 0 0
19 1 2.0627604929644967 20.38317480063903 10.242863944328606 0 -1 0
63 2 20.391893646717023 4.094962363520536 10.150208829945804 -1 0 0
269 2 6.033433268975032 4.056209101626211 12.353111605691533 0 0 0
272 2 4.0968576230387646 6.087164053102798 12.40418536749434 0 0 0
20 1 1.9337665367720895 1.980160027597255 8.286371989506844 0 0 0
22 2 2.127830486793851 2.1565817786859287 10.071679869097395 0 0 0
28 1 2.075611827758142 2.0271853174291525 12.364328197655487 0 0 0
59 1 2.2026143128728335 4.187020377495647 10.196569946628792 0 0 0
60 1 2.0389123579854114 6.178009483550381 8.2062326709194 0 0 0
61 2 2.0061447372339587 4.315060708545917 8.155604833300336 0 0 0
62 2 2.2606232517029103 6.247764491958133 10.148032079298067 0 0 0
423 2 8.191064104623669 0.24666740323589695 10.161644844462618 0 0 0
419 1 10.098917102725556 0.1331111539765114 10.337098303602572 0 0 0
429 2 10.098045161076021 0.04124238519915581 12.187096614868068 0 0 0
625 1 12.377744687690003 20.256459419433423 12.386866157816039 0 -1 0
617 1 12.219740961134676 0.07920734120977455 8.289710937611364 0 0 0
623 2 12.20398103887291 0.08488439053964675 10.173852111902766 0 0 0
425 1 8.282276884473145 0.012386213624974865 12.188624513030387 0 0 0
472 2 8.252563606128952 5.978173193419457 12.076873163659315 0 0 0
618 1 12.297144905345375 2.064251592895797 10.231394592902657 0 0 0
624 2 12.329363833582686 2.1108700803047067 8.079112051970045 0 0 0
632 2 12.134941606745018 2.1271178250851492 12.195002347646728 0 0 0
657 1 12.38340691279259 4.132369315614512 8.184657832421106 0 0 0
658 1 12.17594480132464 6.10489164862281 9.82946413540925 0 0 0
663 2 12.380894319688657 4.226970552287992 10.173907970548164 0 0 0
664 2 12.277541575382216 6.215986052301419 7.932038649203891 0 0 0
665 1 12.373356013153787 4.226547199607889 12.090472818779755 0 0 0
672 2 12.260416126258596 6.2069938029154255 12.302429824301347 0 0 0
418 1 8.171952046544112 2.090944336004358 10.131597015419095 0 0 0
420 1 10.392687647584392 1.896129177241617 8.063234396937066 0 0 0
422 2 10.188393415344859 1.910726412926859 10.376740541214277 0 0 0
424 2 8.220237751646975 2.046784893766092 8.110800013786301 0 0 0
428 1 10.243914874719277 2.0762217173741315 12.352096236054644 0 0 0
432 2 8.026690900364205 1.9181248881590445 12.38062666390251 0 0 0
457 1 7.984227643518584 4.011544140487357 8.039814347297181 0 0 0
458 1 8.265177956264841 5.95841818220683 10.295517413568685 0 0 0
459 1 10.20200333038883 4.122299580955458 10.21879556446119 0 0 0
460 1 10.360897011683402 6.014036747991512 8.063530738341033 0 0 0
461 2 10.201481394170631 3.943205368886429 8.28255197734841 0 0 0
462 2 10.283740485641738 6.012101178567213 10.175728983709359 0 0 0
463 2 8.050056729825927 3.9243285513972124 10.124127783449214 0 0 0
464 2 8.444174580682846 6.07479083493679 8.130195134343586 0 0 0
465 1 8.196034778336546 3.9106369129840424 12.16754592441282 0 0 0
468 1 10.208089750982763 6.218163923232106 12.393430130578231 0 0 0
469 2 10.173976928060076 4.0102520971179745 12.195160444923715 0 0 0
823 2 16.36920899835354 0.0382516262363389 10.210802010384914 0 0 0
817 1 16.26748251491302 0.20135176628412768 8.068745342272567 0 0 0
819 1 18.44874215630271 20.26846485304941 9.964127618362603 0 -1 0
629 2 14.117199857651011 20.340922575926534 12.255780512410906 0 -1 0
825 1 16.419403579668558 0.1588194191625448 12.306340193588936 0 0 0
829 2 18.487768408522328 20.352843213900588 12.114308046594774 0 -1 0
861 2 18.494397257201094 4.071492649485829 8.078126006687585 0 0 0
862 2 18.453932322509598 6.085584845853648 10.433377606242779 0 0 0
863 2 16.19231264266729 3.9451596055540135 10.316457185367836 0 0 0
864 2 16.512160688036555 6.119310908998841 8.18924266177191 0 0 0
865 1 16.55858934953738 4.067683530868013 12.231639960217189 0 0 0
868 1 18.629260687431337 6.084749752148747 12.343698390214906 0 0 0
869 2 18.433484371394808 4.098990553626711 12.137934006179327 0 0 0
872 2 16.41060532939359 6.164334973822556 12.393057716606554 0 0 0
620 1 14.149838544257554 2.159770454001208 7.960122712007811 0 0 0
622 2 14.321444528283497 2.0288520184385685 10.063107399924355 0 0 0