LAMMPS data file via write_data, version 28 Mar 2023, timestep = 300000, units = metal

1001 atoms
2 atom types

0 20.41714 xlo xhi
0 20.41714 ylo yhi
0 20.41714 zlo zhi

Masses

1 6.941
2 18.9984032

Atoms # atomic/kk

6 2 2.1945009855928017 1.9683048370809422 2.002735134107639 0 0 0
12 1 2.3432781957810596 2.129036736488695 3.984199842698578 0 0 0
14 2 2.166293975282613 2.121714591896353 6.128128097705281 0 0 0
43 1 2.1292803279103625 4.070844944813163 2.1620820195915003 0 0 0
46 2 2.042358772722534 6.090339250814731 2.1235096150331167 0 0 0
44 1 1.9405559298359307 6.18560947169278 0.0016886497276823792 0 0 0
51 1 1.7882613750102803 4.168660207092326 6.085736039507399 0 0 0
248 2 4.086376789021855 6.244353912537543 0.14410714341012776 0 0 0
52 1 2.2652176210721082 6.142598043304245 4.132638972100668 0 0 0
204 1 6.111999354146687 2.107762112533948 20.238225480439127 0 0 -1
53 2 1.9363638839071233 4.232913238551083 4.115547580461401 0 0 0
244 1 6.048775832707525 6.154910621427947 20.194576685030853 0 0 -1
4 1 0.1544974768163756 2.26370074356238 1.8758023692644643 0 0 0
234 1 2.0482944577621183 2.1957942394845196 20.336968091109103 0 0 0
54 2 1.96818994554178 6.131407786552391 6.187050450126666 0 0 0
208 2 4.2156744838300115 2.0653624113689766 0.05276155861544678 0 0 0
202 1 4.123033458130002 2.0134593092750617 1.9013167304055587 0 0 0
206 2 6.303236973297426 2.092029108236731 1.8029245293420264 0 0 0
210 1 4.223936857048914 2.13445996795391 6.10094296801739 0 0 0
212 1 6.116220542601687 2.1846742360926723 4.0266587056695435 0 0 0
214 2 6.089278045640766 2.082270568641153 6.030510900710489 0 0 0
216 2 4.143226933674636 2.2088331960126335 3.9000163439170743 0 0 0
242 1 4.0879410954963555 5.930666392504623 1.9208205063918646 0 0 0
243 1 6.117875439671725 4.189453295240831 1.9779900121112513 0 0 0
246 2 6.021250902797144 6.137859743093627 2.051756923082077 0 0 0
247 2 4.092360486978108 4.1189191706597335 1.8857654253579588 0 0 0
249 1 4.160676226815763 4.092390721366146 4.175669903533814 0 0 0
250 1 4.143578081918481 6.214815103386542 6.169466613475759 0 0 0
251 1 6.312913606429222 4.106484834424305 6.345404814921964 0 0 0
252 1 6.027446772896687 6.144808817982482 4.187839867336681 0 0 0
253 2 6.134768382222132 4.036228930066534 4.025771377370626 0 0 0
254 2 6.11494521257392 6.169971067899693 6.2159106504073955 0 0 0
255 2 4.165102888700486 4.222619729996954 6.05863939177064 0 0 0
256 2 4.248409884542034 6.109720866146632 3.9564553290167863 0 0 0
55 2 0.012717912309820889 4.249290127686946 6.139148464073835 0 0 0
205 2 6.067976516190599 0.04841088810070634 20.329802947516832 0 0 -1
42 1 0.2081912215795739 6.359114648376816 2.1228633135335735 0 0 0
50 1 20.32669042428632 6.245229083267993 6.18614742613841 -1 0 0
203 1 6.243582430567053 20.317722082620268 1.973135979919065 0 -1 0
10 1 20.28849697622703 2.093567266115282 6.038090322175709 -1 0 0
49 1 0.11630773524128592 4.261497490390494 4.2267450024044715 0 0 0
8 2 20.415530984577305 2.125332190312495 0.07350011638058618 -1 0 0
11 1 2.1340810865767965 0.2605054577059171 6.0667485959726495 0 0 0
209 1 4.211713540754102 20.367433085333637 3.941068251505158 0 -1 0
16 2 20.364210665495786 2.028616774803345 4.159530120581036 -1 0 0
56 2 0.0017276117991684714 6.336378361184967 4.146211324586218 0 0 0
3 1 2.3478440046845828 20.343734728766172 2.147139118738283 0 -1 0
13 2 2.2939077561550927 20.40852615390951 4.141306994082541 0 -1 0
207 2 4.266943654422972 20.398069244816586 1.8770116916679016 0 -1 0
608 2 12.176824230716944 1.8665970357550097 0.002340956843279439 0 0 0
402 1 8.249082039907595 2.064763977864262 1.9913485185004192 0 0 0
406 2 10.177268243828925 1.9515495389233621 2.024206264159198 0 0 0
404 1 10.20864519164451 1.9274079124256676 20.314777984805023 0 0 -1
410 1 8.207840216761689 1.9796773737001578 6.167203403661716 0 0 0
412 1 10.428119362340125 2.0197280125527106 4.162196546831358 0 0 0
414 2 10.170720381989005 2.0236986591734833 6.12589872166037 0 0 0
445 2 10.172054336916828 3.85826089042476 20.336891267323352 0 0 -1
416 2 8.126735793396973 2.2733233231582286 4.169307719276493 0 0 0
442 1 8.110579996422011 6.114270752709759 1.8989589898259134 0 0 0
443 1 10.164320925089177 4.212619325946939 2.019746746546874 0 0 0
648 2 12.436764784045723 6.205612719307708 0.16275600910093938 0 0 0
446 2 10.166670056781397 6.065126867655696 2.147798192692161 0 0 0
601 1 12.167887037026537 20.339298279395592 20.33982349660395 0 -1 -1
447 2 8.147047636758193 4.189408466451366 2.0452654234202052 0 0 0
449 1 8.121128219285003 4.1295831175663835 3.9383588335020865 0 0 0
444 1 10.23384662599501 6.115117792820647 0.15876568250126866 0 0 0
450 1 8.207244005619396 5.934219414746996 6.024390838042489 0 0 0
451 1 10.161080538648113 4.0970319147516125 6.066629753953346 0 0 0
452 1 10.332249553557704 6.1273299787801045 4.360482525051736 0 0 0
453 2 10.410013367639873 4.149127435937311 4.074224218815423 0 0 0
454 2 10.148115369699267 6.0019790857271325 6.235941037483051 0 0 0
455 2 8.10530909077356 3.9824033601065962 6.074489992942804 0 0 0
456 2 8.15854814660489 6.116527614359505 4.083918412319011 0 0 0
602 1 12.3808421344385 2.143029489099459 2.058727733913744 0 0 0
610 1 12.220582872660087 1.8946638693070774 6.157754880282264 0 0 0
616 2 12.26595086401682 1.8220179381922474 4.052943972675222 0 0 0
642 1 12.58190382489834 6.146505631562278 2.0479926512042996 0 0 0
647 2 12.128578578042722 3.979675757244726 1.9967405378985554 0 0 0
649 1 12.294509449966961 3.8989265383527862 4.143977250225754 0 0 0
650 1 12.351801638538083 6.0529904834749555 6.238761597457851 0 0 0
655 2 12.360035087397366 3.9186429774116434 6.197818596788517 0 0 0
656 2 12.219082854344647 6.2281807470350365 4.167892008206954 0 0 0
609 1 11.986428862935762 0.0953158450094449 4.040100520480467 0 0 0
405 2 10.018254200591018 20.376698179670953 20.40048911758337 0 -1 -1
607 2 12.233107130234407 20.409759477101037 1.9184787554344065 0 -1 0
615 2 12.12782325732115 0.013845545804695547 6.092195260241178 0 0 0
15 2 0.09448952929269565 20.32779633414142 6.122858292390727 0 -1 0
47 2 0.06331420481741926 3.9467285029798433 2.019022111065845 0 0 0
2 1 19.374335154607525 0.9714921200511553 3.2659096969999943 -1 0 0
606 2 14.27859567731457 1.9759595918983035 2.0076834696934687 0 0 0
612 1 14.263623263765474 1.798156985321293 3.9116943097439245 0 0 0
614 2 14.18865570624785 1.9699972890152138 6.137130601921727 0 0 0
643 1 14.426067259662032 3.874475334549636 2.0246199850136612 0 0 0
646 2 14.392374207676815 6.053311011963881 2.0845815943694075 0 0 0
651 1 14.245777328702713 3.9085896806190075 5.930751862305503 0 0 0
652 1 14.193432538248963 6.125988602178333 4.057810318077052 0 0 0
653 2 14.438950792320554 4.015173823857222 4.035623055163537 0 0 0
654 2 14.293340334901345 6.0919265660612805 6.150257307888655 0 0 0
802 1 16.380301791436484 1.9343210449323833 1.8826443346183517 0 0 0
804 1 18.327187707653483 2.070658252262225 0.07686126497919708 0 0 0
806 2 18.35365516040295 1.810680021221164 2.0367066687483097 0 0 0
810 1 16.375196062259555 1.8085832601452503 6.224377648639406 0 0 0
812 1 18.16830886016848 2.3193626789664226 4.271021292501367 0 0 0
814 2 18.59147985291257 2.0500333289563217 6.0934772175725715 0 0 0
816 2 16.32983075336263 1.8271668965663448 4.259259517632886 0 0 0
842 1 16.420573801876227 6.107339532932225 2.082817980857218 0 0 0
843 1 18.167111273695802 4.108741027918555 1.9178176129864746 0 0 0
846 2 18.31266454541656 6.064952421022824 2.0434678414295497 0 0 0
847 2 16.25343909995156 3.9521751203433926 2.094183089467595 0 0 0
849 1 16.323175701900407 4.019653860809283 4.097562352026663 0 0 0
850 1 16.397642015734498 6.026029068294159 6.2197843861590085 0 0 0
851 1 18.29288469174882 4.23428211112031 5.922145677044795 0 0 0
852 1 18.398098309389464 6.073287949472189 4.061843933341349 0 0 0
853 2 18.469103590286444 4.023834919831758 3.8816631261584895 0 0 0
854 2 18.452815019279157 6.214513183599438 6.099518177713657 0 0 0
855 2 16.428345690766797 4.097218819300453 6.042185806459827 0 0 0
856 2 16.390224111728564 6.030913610342906 4.001924472693989 0 0 0
813 2 18.37204423738975 20.246495388738186 4.222282570675228 0 -1 0
603 1 14.012462568592703 20.198620349735126 2.069767605351611 0 -1 0
811 1 18.412675050539377 20.177748666345742 6.1197100553016615 0 -1 0
7 2 20.393846635958415 20.39179792713576 2.194048090779157 -1 -1 0
288 2 3.9510278637817127 10.308472769119012 0.041367015960328345 0 0 0
285 2 6.1870009933379055 8.06476013417025 0.06011561613303914 0 0 0
281 1 4.002786852121834 8.148005899556054 0.19377292360729742 0 0 0
85 2 2.1027146051683956 8.280480596512184 0.2379296492154262 0 0 0
125 2 1.9210374699436306 12.310333728191864 20.37248389547885 0 0 -1
88 2 0.023824850824700445 10.172511272222089 0.14371457365691054 0 0 0
84 1 1.9677839463173687 10.203267541499718 0.114636341607536 0 0 0
321 1 4.162041941253167 12.287746204000305 20.27023841490037 0 0 -1
83 1 2.4296887558281957 8.151136674904318 2.1607382366421866 0 0 0
86 2 2.0563503283530125 10.212740402961769 2.2007058804835906 0 0 0
91 1 2.02890120559539 8.118781705800288 6.078642161043899 0 0 0
92 1 2.0432783440282853 10.106157463092645 4.183418045362422 0 0 0
93 2 2.1842590443265886 8.103281102220851 4.140825763984195 0 0 0
94 2 2.188488847691445 10.286114648409255 6.236715007520588 0 0 0
123 1 1.9838932416372141 12.45451640762132 1.8920269058774946 0 0 0
131 1 1.9462131950540509 12.163429002787746 6.1792042334487824 0 0 0
133 2 1.8705928697355605 12.091909121285937 4.040833968808101 0 0 0
282 1 3.997696059198753 10.352615742101746 2.036807043728125 0 0 0
283 1 6.043189956013129 8.113505402531937 2.0350436662381695 0 0 0
286 2 5.890231886358282 10.201653978176951 1.9608152771155447 0 0 0
287 2 4.2088073224434615 8.162897498732823 2.1279686104131987 0 0 0
289 1 4.176115458639771 8.095783377735327 4.03404475573451 0 0 0
290 1 4.019275906904386 10.182739818584864 6.142060736170319 0 0 0
291 1 6.150150417036867 8.188953470356736 5.970635786583881 0 0 0
292 1 6.083733073189343 10.210960157062999 4.135373800494163 0 0 0
293 2 5.995378615747193 8.263011651276887 3.9844495565165015 0 0 0
294 2 6.200990244599296 10.181991237046702 6.204932922684067 0 0 0
295 2 4.180251609870119 8.124745436163854 6.139014089177149 0 0 0
296 2 4.095241679888383 10.232512188310933 4.040004867647519 0 0 0
323 1 6.093287985707491 12.26017901793765 2.083335976493882 0 0 0
327 2 3.8869700815844057 12.4519863918746 2.1208839790875587 0 0 0
329 1 3.716477108410235 12.26006406025756 4.086558419533248 0 0 0
331 1 6.262289778040788 12.295429155655842 6.261488531447078 0 0 0
333 2 6.016788143720363 12.350945770189464 3.8917342059318987 0 0 0
335 2 4.127625753376581 12.153438489452611 6.362421740508785 0 0 0
82 1 0.04902642489566446 10.003777821137481 2.1769287295985094 0 0 0
127 2 20.39470478092224 12.480361977843685 2.1266596999617993 -1 0 0
129 1 20.303922983815784 12.101616335832686 4.074462887826699 -1 0 0
81 1 0.1261849770478321 8.332667142734834 0.06765131588930519 0 0 0
89 1 20.310712900850888 8.14293133215717 4.212059009487815 -1 0 0
96 2 20.36732617469942 10.269036267356629 4.121420408830405 -1 0 0
135 2 20.38081046303005 12.322488005711122 6.198074817747132 -1 0 0
525 2 10.082690383230018 12.313222171267094 20.405968017665515 0 0 -1
688 2 12.10798303970247 10.220370510127278 0.159483143947101 0 0 0
485 2 10.204609999953439 8.29447354101141 0.07698828453574694 0 0 0
488 2 8.10492071305271 10.221880296288429 0.11190213464027317 0 0 0
681 1 12.178151892967286 8.427343585060026 0.16067795800897605 0 0 0
482 1 8.174229421948164 10.143773703142799 2.0156972625907916 0 0 0
483 1 10.072184060763194 8.08672620272434 1.9971045761946147 0 0 0
486 2 10.219691520795466 10.048441303539965 2.0756925557896975 0 0 0
487 2 8.119480249561308 8.13805809803106 2.1238849761063006 0 0 0
489 1 8.167316473906258 8.123916575427975 4.127916229159787 0 0 0
490 1 8.19441791775703 10.237552184568594 6.074677990717086 0 0 0
491 1 10.167735406604093 8.016620368938812 6.121413250362309 0 0 0
492 1 10.199767740856503 10.099972614188765 3.9921436943972264 0 0 0
493 2 10.177887182065659 8.206432814032468 4.062700779440477 0 0 0
494 2 10.11666736716777 10.237810537272674 6.14440224774691 0 0 0
495 2 8.413998596201932 8.026006829932477 6.144408349177292 0 0 0
496 2 8.055577637705454 10.115895793709514 4.226871722500009 0 0 0
523 1 10.19470429056676 12.42574083872561 2.1282581838965386 0 0 0
527 2 8.229938176214226 12.20731696006456 2.0654306549434724 0 0 0
529 1 8.105860277897564 12.18486877757292 3.976792062500241 0 0 0
531 1 9.951026097498772 12.280568051744472 6.200835794668243 0 0 0
533 2 10.061624462868796 12.3859832360183 4.045868971310206 0 0 0
535 2 8.180751915378485 12.34510101830085 5.8791919139142905 0 0 0
682 1 12.016223357477978 10.07316215030499 2.0441701579099743 0 0 0
687 2 12.38424698282587 8.1784254855862 2.0042344847798246 0 0 0
689 1 12.067640575555117 8.291489676617033 3.964965723102834 0 0 0
690 1 12.229626475102854 10.177434224384468 6.052489023698562 0 0 0
695 2 12.190641834277448 7.993481777972993 6.1717181870668005 0 0 0
696 2 12.07322804613321 10.140811727085389 4.14545227107475 0 0 0
727 2 12.124557058359319 12.141906811050443 2.0143081152204427 0 0 0
729 1 12.015013975495759 12.278162130007244 4.204972621646943 0 0 0
735 2 12.137276692211373 12.181849603429091 6.2250127234472385 0 0 0
121 1 0.06927723219190085 12.45297104959179 0.12621678003287315 0 0 0
925 2 18.40710447766889 12.300419801696624 0.2293804455700097 0 0 0
685 2 14.261841648821916 8.343347995154032 20.245917055717143 0 0 -1
684 1 14.225132176397606 10.28121614251268 20.341655118342064 0 0 -1
87 2 20.383906339732775 8.069814632882206 1.9942043856278728 -1 0 0
95 2 0.016606129389699194 8.196531279629367 6.111074132092816 0 0 0
90 1 0.186482502372513 10.127677146685226 5.990605486748342 0 0 0
882 1 16.32019511538649 10.205809727745091 1.7698211556701289 0 0 0
883 1 18.337889756724884 8.110639765630737 2.0738197121801867 0 0 0
886 2 18.403915795074703 10.091026863304263 1.9875511051867736 0 0 0
887 2 16.34816618062426 8.038408435064571 1.8737480818989125 0 0 0
889 1 16.06864328690612 7.975475276404425 4.179588686528813 0 0 0
890 1 16.22881067582777 10.072655398752202 6.1503011767221425 0 0 0
891 1 18.229367652359244 8.466851481622518 5.873658829957778 0 0 0
892 1 18.26792905450643 10.332783917866328 4.0546743477993825 0 0 0
893 2 18.316539764341695 8.24582619338862 4.049525329912032 0 0 0
894 2 18.23562142986057 10.314371015322951 6.159991267705171 0 0 0
895 2 16.265966844605757 8.124408178606835 6.119143305555053 0 0 0
896 2 16.171193805781158 10.057184979847278 4.087348882069935 0 0 0
923 1 18.545924856108297 12.416267031275735 2.0676568381668003 0 0 0
927 2 16.241780103826862 12.2145167675646 2.200320962948778 0 0 0
929 1 16.20024479400053 12.291497219898064 4.147095689872645 0 0 0
931 1 18.447816446441642 12.275321748517028 6.131034286104191 0 0 0
933 2 18.2433275436611 12.207010530317904 4.220813649214133 0 0 0
935 2 16.202973600110028 12.180989865995944 6.094193575162458 0 0 0
683 1 14.325261990517307 8.366731392154023 1.8826954293331037 0 0 0
686 2 14.454063564432257 10.249722597400773 1.9894229124032032 0 0 0
691 1 14.063707675648937 8.156756364401211 6.042543638633643 0 0 0
692 1 14.253057440779934 10.11243991446877 4.005432254325527 0 0 0
693 2 14.212701442566779 8.2184746710792 4.058893921405658 0 0 0
694 2 14.06777667433608 10.123144587503983 6.408796949431693 0 0 0
723 1 14.154111842607218 12.053380128784323 2.198765985383079 0 0 0
731 1 14.259974080896306 12.109493312191143 6.120168648205826 0 0 0
733 2 14.248844392252417 12.327777473583026 4.117815667895628 0 0 0
365 2 6.029376904446275 16.299814523609097 0.06653613717417883 0 0 0
201 1 4.0336650343033265 20.347212922639493 20.36991736987422 0 -1 -1
165 2 2.0088350930323604 16.57315037591325 20.272588960799453 0 0 -1
368 2 3.997206975869059 18.445853306525947 20.309809659324813 0 0 -1
367 2 4.0253129294420775 16.28940882071085 1.8564976391301802 0 0 0
369 1 3.9156055891069332 16.21907083553766 4.049124818288308 0 0 0
370 1 3.907458416193815 18.422836361105407 6.109114526731544 0 0 0
128 2 20.313808895630974 14.231689890060556 0.03083257007130058 -1 0 0
162 1 20.345944136973262 18.437439934907058 2.189351220388782 -1 0 0
211 1 5.910250804991934 20.319757919469026 6.220497207113375 0 -1 0
371 1 6.156612687699733 16.609658831692148 6.19782541343821 0 0 0
372 1 5.871521706221239 18.380438525288067 4.075331631787719 0 0 0
9 1 0.4671117651212786 20.248634911916195 4.386864365088231 0 -1 0
373 2 6.023078364914305 16.428602320834926 4.092175081314464 0 0 0
215 2 4.052777732585162 0.12270142850814343 6.017755323912503 0 0 0
213 2 6.036129877001768 20.37063161037521 4.028435218311139 0 -1 0
124 1 2.2285033748817415 14.191300526367986 20.2753413912505 0 0 -1
374 2 6.122328598454236 18.451382043535386 6.173116494477242 0 0 0
375 2 4.031063282430983 16.404565509149958 6.115702502504316 0 0 0
376 2 4.003084007920357 18.432850565037363 4.186564322105176 0 0 0
126 2 1.9102758367427182 14.431638170939186 1.8732022258373522 0 0 0
132 1 1.967730748813789 14.103828967591502 4.102663996250377 0 0 0
134 2 2.1511569338920813 14.197196429490576 6.2637189841073395 0 0 0
163 1 2.050029524190599 16.562897165978015 1.7446036140291765 0 0 0
166 2 2.112979560834201 18.429253524956692 2.0143684930858115 0 0 0
171 1 2.127205063303991 16.27730227754705 6.083034435304722 0 0 0
172 1 1.984413429888153 18.166410457897182 4.016072366699413 0 0 0
173 2 1.9838692973066507 16.198079491687093 4.106247229692759 0 0 0
174 2 2.062661555722132 18.414091345022737 6.165415714257622 0 0 0
322 1 3.816579328583342 14.257348214957561 2.0006630614302274 0 0 0
326 2 6.242103355745889 14.199205671991537 1.902291694312133 0 0 0
330 1 3.9883738420905868 14.377742195584124 6.264802541337016 0 0 0
332 1 6.1364968416146155 14.309859366742582 4.003926878270988 0 0 0
334 2 6.079208971746283 14.353730916445475 6.236729949607257 0 0 0
336 2 3.9670293438701645 14.436473672577256 4.291519043311437 0 0 0
364 1 5.943980289387743 18.326834415653064 20.03364825195144 0 0 -1
362 1 4.077600233018337 18.29293749924826 1.8627884200004647 0 0 0
363 1 6.123440577757559 16.31121961390548 2.0769870673735147 0 0 0
366 2 5.962910371015325 18.36624617213903 2.0489428566365726 0 0 0
401 1 8.080148910159462 20.4093631616183 20.358523326030753 0 -1 -1
411 1 10.23153030575136 0.13142329292560007 5.911122243332845 0 0 0
564 1 10.110231267685567 18.39173197204063 0.014531998193891837 0 0 0
413 2 10.171615000763753 0.12061683571199641 4.02814615116349 0 0 0
415 2 7.886254110788702 0.1889887750029977 6.029802238653618 0 0 0
403 1 10.107732440829404 20.38329719176327 1.8684851025827263 0 -1 0
409 1 8.022071756487586 0.1305228303573293 3.9137563656150736 0 0 0
728 2 12.249278690249294 14.213093943120493 0.07835380349519708 0 0 0
568 2 8.038504472351889 18.303579487035016 20.340003043008135 0 0 -1
561 1 7.979248108362418 16.29027270430846 20.31088234404417 0 0 -1
407 2 8.106660341947538 0.06017103955618073 2.1379857282199692 0 0 0
522 1 7.984177995653051 14.16012469261936 1.9176157458121816 0 0 0
526 2 10.159640573407282 14.367637067236066 1.817797969023372 0 0 0
530 1 8.069220257470185 14.478523508283693 6.183883945084053 0 0 0
532 1 10.117636178901485 14.500168386082095 3.98151396133287 0 0 0
534 2 10.198270913076916 14.374986799190935 6.147550529374737 0 0 0
536 2 8.070813746095972 14.434635395828499 4.063049601335314 0 0 0
562 1 8.105295050307195 18.451551079447054 1.8316625046174284 0 0 0
563 1 10.040782438760406 16.343534794216403 2.0844283178708567 0 0 0
566 2 10.057149410649867 18.510797576717955 1.8624387417207033 0 0 0
567 2 8.046218007643409 16.531919395780967 2.0471700694224797 0 0 0
569 1 8.021399056131095 16.474404102857346 4.037531371988601 0 0 0
570 1 8.010093136555112 18.645541908553458 6.075137950939365 0 0 0
571 1 10.135051966846815 16.420893591934426 6.155177375006507 0 0 0
572 1 9.951752859072139 18.37061966429698 4.111931403995071 0 0 0
573 2 10.103427673623083 16.318132095293045 4.112299082792697 0 0 0
574 2 10.172120064922618 18.44767915268954 6.026596841342136 0 0 0
575 2 8.04152302640292 16.400337885283534 6.135481598099252 0 0 0
576 2 8.10629996803204 18.388704176784938 4.099285384032258 0 0 0
722 1 12.261863752714538 14.045051896441105 2.141910412701249 0 0 0
730 1 12.197925773420671 14.411317429967074 6.108677000356716 0 0 0
736 2 12.128848251425309 14.222617880316191 4.022392522415336 0 0 0
762 1 12.034295296992548 18.536384459903253 2.0487428454072747 0 0 0
767 2 12.12760839938083 16.416122306397472 2.011830168201444 0 0 0
761 1 12.224647983789342 16.208456766691597 0.1056790743460167 0 0 0
769 1 12.206693759072026 16.510883242297812 3.9012727463615806 0 0 0
770 1 12.145096984077936 18.267358833551498 6.025896181861733 0 0 0
775 2 12.161094247735827 16.40500138591624 6.078362016659843 0 0 0
776 2 12.003696995552842 18.555320365387157 3.8534430343040733 0 0 0
613 2 14.212776227311995 20.338671320239058 3.8943879126566854 0 -1 0
815 2 16.31180852512644 20.306039551734692 6.136777405898921 0 -1 0
611 1 14.235088353050003 0.09166021059965236 6.306673991283913 0 0 0
807 2 16.440273224878194 20.332424149781154 2.0690542280782447 0 -1 0
161 1 20.18704832695854 16.281790267712932 0.11080046022308919 -1 0 0
169 1 0.003602214215831623 16.38979615317744 4.134490543795278 0 0 0
167 2 20.361661252665446 16.46621258575731 2.0494995666602103 -1 0 0
168 2 20.315643362056527 18.48353678662554 0.032935637576846324 -1 0 0
809 1 16.436677446619555 0.04698651364187967 4.116697632826931 0 0 0
176 2 20.414390759499547 18.30589465747976 4.184564342046715 -1 0 0
803 1 18.225288137929727 20.12530476190383 1.6606927947027035 0 -1 0
962 1 16.1302349433375 18.38389616714739 1.9561977368579881 0 0 0
963 1 18.24041751922031 16.296223905443128 1.8711480339508617 0 0 0
966 2 18.283412582653373 18.26395916435797 2.046528591568092 0 0 0
924 1 18.236871051289462 14.175867545125106 0.16838793477764144 0 0 0
964 1 18.369407058986628 18.201872943952008 20.355826886743355 0 0 -1
965 2 18.488587810269618 16.276197051686772 0.11320868280616381 0 0 0
967 2 16.32565976953298 16.218176042653067 2.1189644483634127 0 0 0
969 1 16.383748532584683 16.369180489158136 4.204683456793029 0 0 0
970 1 16.24667512056577 18.188534861884847 6.323929475601424 0 0 0
971 1 18.25754928817984 16.231128452226713 6.207305791828374 0 0 0
972 1 18.369044316978037 18.159708673944415 4.209017082443753 0 0 0
973 2 18.37813752452516 16.22969431085426 4.0434186873227995 0 0 0
974 2 18.4290269044462 18.25947048229444 6.2194213710100374 0 0 0
975 2 16.18962201654053 16.34877260842166 6.301051317736703 0 0 0
976 2 16.397411388998133 18.2804052480012 4.237879907290899 0 0 0
726 2 14.148750369985793 14.415913145900259 1.911701385981815 0 0 0
732 1 14.191858098858864 14.313032353631353 4.1163256884039665 0 0 0
734 2 14.099414905037177 14.30582273953627 6.25785918873206 0 0 0
763 1 14.175867830123037 16.384223579410786 2.194526925947871 0 0 0
766 2 14.37299578575429 18.241344207612933 1.8378892526955468 0 0 0
771 1 14.259674593930512 16.26572187682119 6.092846598297789 0 0 0
772 1 14.373923200970394 18.496831722439165 4.220796167315269 0 0 0
773 2 14.091723485043174 16.605261929660916 4.095882115180046 0 0 0
774 2 14.336732496293964 18.532023185237918 6.070749169064561 0 0 0
922 1 16.33889871039538 14.370702358256045 2.316661670245552 0 0 0
926 2 18.271607709770766 14.444075944950642 2.0837179660380847 0 0 0
930 1 16.308545555001444 13.906273853105132 6.196199212714235 0 0 0
932 1 18.43424604440479 14.403668607772515 4.138857592989993 0 0 0
934 2 18.248959509769406 14.254071356088827 6.01944202509369 0 0 0
936 2 16.407371218763238 14.45014410001761 4.224301710934034 0 0 0
130 1 0.14476823345710338 14.235292622971738 6.066148684021692 0 0 0
175 2 0.0015623115475605204 16.378328570193283 6.113169851659717 0 0 0
170 1 20.416340087773214 18.21773726585007 6.28607661349224 -1 0 0
122 1 0.06645594500347714 14.638132341687003 2.158102986888458 0 0 0
136 2 20.35023406398889 14.281645241333363 4.069850660719594 -1 0 0
21 2 2.122017933527685 20.4058698326563 8.218524718529743 0 -1 0
258 1 4.291139369531089 5.980371871216063 10.431174249929537 0 0 0
259 1 6.128995606500566 4.036518115885516 10.127837029906221 0 0 0
18 1 0.029943346594119902 1.947379003175468 10.293198369564676 0 0 0
260 1 6.094339437031164 5.93773138176562 8.325133981164631 0 0 0
261 2 6.045811851113503 3.9328505538714413 8.20598727683441 0 0 0
262 2 6.219874890363392 6.051818992088398 10.27306306564797 0 0 0
63 2 20.24315918914803 4.012434338504696 10.29808566045886 -1 0 0
57 1 20.19850261148351 4.1352657161342945 8.007657311870398 -1 0 0
263 2 4.062769774965563 4.230772456924597 10.059325069064341 0 0 0
264 2 4.229617706029969 6.181678451861551 8.08936702996162 0 0 0
265 1 4.329809952656057 4.247956928062087 12.091717296437498 0 0 0
268 1 6.234438991311789 5.892514376169834 12.166528228044825 0 0 0
269 2 6.0851423321483775 3.9634274575432387 12.178883890584661 0 0 0
272 2 4.239963889733331 6.104794479672463 12.22665945734339 0 0 0
20 1 1.9815197723439517 2.0643512997789824 8.307067828493969 0 0 0
22 2 1.921750650348984 2.147944558944647 10.282549363749665 0 0 0
28 1 2.0641417644867848 1.9679437436619849 12.343584110329113 0 0 0
59 1 1.9280964641312495 4.148938930529603 10.170441949962495 0 0 0
60 1 1.9923345377056008 6.207857558362175 8.127342745319279 0 0 0
61 2 1.8458812554761836 4.346131360562833 8.213658361616691 0 0 0
62 2 1.9809556723235953 6.270827325131729 10.119654286365504 0 0 0
68 1 1.8639176543571345 6.176262515862923 12.192557100834364 0 0 0
69 2 2.0439178886169747 4.205243614279647 12.25302685257925 0 0 0
218 1 3.974940397232033 2.1765490081746024 10.224130343590684 0 0 0
220 1 6.114297048884351 1.9762462288951013 7.914029343886179 0 0 0
222 2 6.139104296197938 2.0038192965977264 10.312436950002208 0 0 0
224 2 3.9269612808255023 2.2774912429374714 8.26789963139208 0 0 0
228 1 5.981958286457518 2.012807214567183 12.061739737147679 0 0 0
232 2 3.9998842214061403 2.237132478090573 12.218347535605245 0 0 0
257 1 4.022674575698023 4.224048661645445 8.26100015870604 0 0 0
429 2 10.311682852110895 20.15658986471601 12.292333861203776 0 -1 0
425 1 8.323292590145439 20.276035839215897 12.333096253158473 0 -1 0
423 2 8.182975131787437 20.374742143537922 10.260978699990117 0 -1 0
468 1 10.383838048636678 5.9954448264309805 12.198427311445528 0 0 0
469 2 10.165833030568304 4.015910673423912 12.185207742524092 0 0 0
472 2 8.191217060874221 6.0016910953846745 12.043785028018679 0 0 0
618 1 12.3065976511961 1.9830072200323932 10.204610575896279 0 0 0
624 2 12.156306322787094 2.0127261324978605 8.264914111785377 0 0 0
632 2 12.315536701943156 2.1701208971012487 12.368357602389466 0 0 0
657 1 12.276943787678352 3.9399394704175417 8.260787260267115 0 0 0
658 1 12.261941511516254 6.100712187588969 9.973776224715843 0 0 0
663 2 12.189794086393192 4.015232493845644 10.241802722109055 0 0 0
664 2 12.406960027149706 5.966582213981523 8.138461930348049 0 0 0
665 1 12.406868355937911 4.112633705155591 12.590654535953432 0 0 0
672 2 12.128324398726805 6.1129000458491705 12.387006805564273 0 0 0
418 1 8.045910669270834 1.9793423022648495 10.16030946028356 0 0 0
420 1 10.119995076940015 1.9819940635767612 8.304377831501542 0 0 0
422 2 10.204931702540682 2.088891939657277 10.071701401620622 0 0 0
424 2 8.08367908951504 1.9497960462366015 8.200580783314761 0 0 0
428 1 9.962013005182913 2.0688631199972733 12.525078352350503 0 0 0
432 2 8.196272203884181 1.9502778812257748 12.088706974689325 0 0 0
457 1 8.253988467151098 3.962439844635533 8.097713900376284 0 0 0
458 1 8.085401816679976 5.9033832404147715 10.130165117802584 0 0 0
459 1 10.294277036787227 4.056273519186906 10.22154127688426 0 0 0
460 1 9.988786124106301 5.9148611022435 8.065512570486161 0 0 0
461 2 10.351810238452885 3.996054675721644 8.00781039924497 0 0 0
462 2 10.282916371465761 6.018720594798455 10.054698553027105 0 0 0
463 2 8.009539521446671 4.052361564804914 9.970463487498407 0 0 0
464 2 8.07999901028893 6.006773284902905 8.074831967819325 0 0 0
465 1 8.237817198293923 4.037007811568442 12.189115713523773 0 0 0
829 2 18.585466267825545 20.354920648176435 12.29841962359788 0 -1 0
823 2 16.274335109343372 20.323462794646993 10.413963014910747 0 -1 0
17 1 20.412308281404563 20.147593717502108 8.052975148611647 -1 -1 0
861 2 18.35472081084584 4.051699252940251 7.987784554116326 0 0 0
862 2 18.563868359934048 6.424674592227718 10.247297246330247 0 0 0
863 2 16.161131173191915 4.186292509087763 9.984399667952648 0 0 0
864 2 16.539288814244735 6.028048243140558 8.03852544287043 0 0 0
865 1 16.424650753872843 4.159244999280843 12.35106158737502 0 0 0
868 1 18.497561910380504 6.284007717322339 12.017817011754314 0 0 0
869 2 18.312893955067572 4.213722161709436 12.147080996560643 0 0 0
872 2 16.402395337796754 6.1979853112450725 12.155478588718514 0 0 0
620 1 14.22621506293962 2.159451040089433 8.11224448257769 0 0 0
622 2 14.389270362278566 2.170568130611718 10.112020490469078 0 0 0
628 1 14.417030909561072 1.9786332506287554 12.34236581993937 0 0 0
659 1 14.22210358298005 4.192742535859123 10.347466701832202 0 0 0
660 1 14.389651053979492 6.065416084312751 8.078519583169676 0 0 0
661 2 14.347820928943632 4.066562366560593 7.966521032292775 0 0 0
662 2 14.404915201350246 6.272623093055116 10.29426794927975 0 0 0
668 1 14.48156731260273 6.057421399968215 12.174805396113616 0 0 0
669 2 14.349019727403368 4.171077146771806 12.267908914831416 0 0 0
818 1 16.261024897379347 2.2713833688401226 10.112241141278432 0 0 0
820 1 18.550349333136314 1.8443643155307143 8.237501586542699 0 0 0
822 2 18.23346134888341 2.063513369683272 10.174288981483105 0 0 0
824 2 16.316525376585762 2.0633224011319964 8.18441714345181 0 0 0
828 1 18.2866980114092 2.095563433568096 12.194024339497986 0 0 0
832 2 16.49882266674469 2.0652361395631935 12.23074276572845 0 0 0
857 1 16.210691512735465 3.939668000428667 7.973848950360834 0 0 0