LAMMPS data file via write_data, version 28 Mar 2023, timestep = 300000, units = metal

1001 atoms
2 atom types

0 20.41714 xlo xhi
0 20.41714 ylo yhi
0 20.41714 zlo zhi

Masses

1 6.941
2 18.9984032

Atoms # atomic/kk

6 2 2.198376622834651 2.088092328817208 1.996989789091588 0 0 0
12 1 1.989639932583631 1.9673634514236205 4.3460314213204665 0 0 0
14 2 1.886816898971823 1.9958281863649534 6.25677273137687 0 0 0
43 1 1.9219299630674955 4.0350375769019395 2.105470535356799 0 0 0
46 2 2.061012311653393 6.158817683446691 1.9523523872554023 0 0 0
51 1 2.1827385578382916 3.9834861745967856 6.050194150011529 0 0 0
52 1 2.1367121686111377 6.118266314788087 3.9475816081623387 0 0 0
53 2 2.070669945373306 4.036612519951122 4.093572573957453 0 0 0
54 2 2.0569482093379308 6.075229775874091 6.090391900163232 0 0 0
202 1 4.000501950222425 2.0789914547592234 2.0378088972547475 0 0 0
206 2 6.089510258732021 2.150242816642778 2.2083645243527172 0 0 0
210 1 4.077212413075117 1.8400748636075188 6.314905700241565 0 0 0
212 1 5.9427265317067235 2.185731174705859 4.2809311313057625 0 0 0
214 2 6.020892925018968 2.061687507679611 6.106302275130893 0 0 0
248 2 4.210348661813413 6.303053700327713 20.364756749915923 0 0 -1
216 2 4.061358137701179 1.9812749870164623 4.124613655599335 0 0 0
204 1 6.00142739630468 1.8268050984846276 20.355554178875057 0 0 -1
242 1 3.880776289310444 5.98542870967934 1.8261655013202849 0 0 0
243 1 5.8829648448705525 3.8821055372729036 1.9248963567604018 0 0 0
246 2 5.921329322517937 6.159827456544749 1.9773109156630342 0 0 0
247 2 3.9472041448298505 4.214526322075137 2.0302480072760485 0 0 0
249 1 4.151109751537496 4.035203254796568 3.8998360925118996 0 0 0
250 1 4.093361208624066 5.999389109477032 6.066244434782202 0 0 0
251 1 6.097259723117192 3.9634860774452756 6.151395729041462 0 0 0
252 1 6.091238466760759 6.118631116541178 4.1097171806694455 0 0 0
253 2 5.950199870937088 4.046584328802056 4.004888722497844 0 0 0
254 2 6.1534456588646025 6.150801913843684 6.102843017815973 0 0 0
255 2 4.125872516694702 3.9566844687169818 6.205604953462461 0 0 0
256 2 4.158342205050697 6.121315680814767 4.080350196030519 0 0 0
50 1 0.03533927441530693 5.991095272812485 6.234791220168392 0 0 0
47 2 0.11429857739059736 3.992592028605969 2.042056834922708 0 0 0
55 2 20.277154281088077 4.061361986105469 6.106078291863979 -1 0 0
3 1 2.1181670819748146 0.045714648783942054 1.9077510182156316 0 0 0
207 2 4.003575301813526 0.022692290990136144 1.983280673440664 0 0 0
209 1 4.259865039466567 0.046050534208318054 4.092598989947632 0 0 0
49 1 20.274159021292228 4.092719029435313 4.006435478253003 -1 0 0
56 2 0.1602234497388855 5.943624746024255 4.068809699449482 0 0 0
42 1 0.0813770431172748 6.167138159342333 2.157217761142673 0 0 0
10 1 0.045498096176793894 2.030403500342888 6.152959643771627 0 0 0
1 1 0.01679712841462375 20.376301405482337 0.09533555886777258 0 -1 0
201 1 4.007125348424493 20.342291190920086 20.38745038383171 0 -1 -1
402 1 8.004841965139796 2.1122814446057347 1.9154978103022595 0 0 0
406 2 10.232869255952929 2.0404708798182587 2.0055556434845645 0 0 0
410 1 8.029164482762871 2.138457611168029 6.009367561964983 0 0 0
412 1 10.07391960836636 1.972968931200534 4.058700584429812 0 0 0
414 2 10.22894107370975 2.117546456843593 6.084482754227879 0 0 0
408 2 8.27114194194919 2.0788218236989726 20.405157622494606 0 0 -1
416 2 8.132726933348781 2.2424278989138933 4.1221677802996695 0 0 0
641 1 12.364849198390964 4.28259812602245 20.219853536060004 0 0 -1
442 1 8.233189640963404 6.059109006328381 2.0987895491820856 0 0 0
404 1 10.30748790139133 2.2452802514198553 0.03140182501384382 0 0 0
443 1 10.551275529398328 4.044741492817313 2.056349609964327 0 0 0
608 2 12.276525533889396 2.122554055900168 0.06536522083213334 0 0 0
446 2 10.240864288200662 6.050238108414528 2.0449033027536756 0 0 0
447 2 7.857211228392329 4.064784980943304 2.0673902685927152 0 0 0
449 1 8.075440245985597 4.037147169469864 4.081085339494091 0 0 0
450 1 7.9931924544877795 5.929123064271318 6.173228757348253 0 0 0
451 1 10.353524787164561 4.130101088316513 6.097964864610695 0 0 0
452 1 10.1320612595663 6.2676309196710545 4.395537882189085 0 0 0
453 2 10.16521706200196 4.315840069644109 4.258197405505678 0 0 0
454 2 10.338976457084847 6.27129685624784 6.403286754164318 0 0 0
455 2 8.195852010256253 4.183073142277956 6.301980256729916 0 0 0
456 2 8.124038175462653 6.118018850813058 4.189270973331241 0 0 0
602 1 12.339373708800457 2.09392579163589 2.0905950387847496 0 0 0
610 1 12.111687935656388 1.8210855174745413 6.1526000476104 0 0 0
616 2 12.111547203027133 2.1022620955355604 4.068314098362878 0 0 0
642 1 12.282334650973654 6.402477933941709 2.177520093371544 0 0 0
647 2 12.367127598446658 4.035846509913384 1.9270057412534276 0 0 0
649 1 12.29321028697817 4.062888782663934 3.8855537844659955 0 0 0
650 1 12.155438628862058 5.771241489765908 6.224954279020028 0 0 0
655 2 12.274270873453744 4.118790613841416 6.034960929984214 0 0 0
656 2 12.284177335612911 6.162800123904503 3.925408097950929 0 0 0
405 2 10.21967681346957 0.05682576023660278 0.0585342184696849 0 0 0
615 2 12.294328055323213 20.29959408438963 6.0568947592467115 0 -1 0
609 1 12.486951193443396 20.37048276568223 4.0755617321841004 0 -1 0
2 1 20.312112673838854 2.0128492244379124 2.143562866382805 -1 0 0
41 1 0.027540043636806056 4.247651558388411 20.23701384519727 0 0 -1
16 2 20.337774332986367 2.050026810713098 4.15723749769519 -1 0 0
844 1 18.459442077799622 5.993047470347062 0.00036046320059313075 0 0 0
606 2 14.197856120117523 1.9998377158263838 2.0298984904860724 0 0 0
612 1 14.141213390108476 2.1326899841887332 4.001823099795396 0 0 0
614 2 14.036405752128076 1.969817532943937 5.952549586044722 0 0 0
643 1 14.297209191916238 4.014580290101098 2.0488438719265045 0 0 0
646 2 14.278997763157756 6.270836696258547 2.1166658683750503 0 0 0
804 1 18.457550932535835 2.180338820377759 0.27301403460883006 0 0 0
651 1 14.204618085575305 3.914957447377067 6.158103238061461 0 0 0
652 1 14.24337051127847 6.060415842170533 4.067663541328452 0 0 0
653 2 14.162059149280067 4.011038529174104 3.9706184658270063 0 0 0
654 2 14.196527289575739 6.1156319669708346 6.228474916117834 0 0 0
802 1 16.40951217035805 2.0912621939989915 2.2761290681899844 0 0 0
604 1 14.352250344426682 2.002229445363598 0.1582877620681817 0 0 0
806 2 18.329046403626982 2.168008829272108 2.2987188343004816 0 0 0
845 2 18.412316760512898 4.182129010359685 20.339613679958312 0 0 -1
810 1 16.040387618659352 1.8772750056632221 5.9877647264555245 0 0 0
812 1 18.439056622640926 1.9669820548640666 4.1258664885752045 0 0 0
814 2 18.302748209575924 2.0181265451062322 6.187992556706182 0 0 0
816 2 16.107181488221073 2.0581185993175377 4.103330145477474 0 0 0
842 1 16.21912951326267 6.088559266736995 1.9437546085163393 0 0 0
843 1 18.119439650877187 4.095995702633226 2.1253679678465844 0 0 0
846 2 18.3870331572531 6.224875207975978 1.9412685250410167 0 0 0
847 2 16.150995098126305 4.001634865408109 2.050059029222686 0 0 0
808 2 16.244392677590714 1.9645740981471584 0.3091891165295816 0 0 0
849 1 16.36849592417797 4.113422989788658 4.007422560868536 0 0 0
848 2 16.257554267538605 5.95159159011074 0.08162240873609325 0 0 0
850 1 16.229847954298062 6.122385167705047 6.255058993449551 0 0 0
605 2 14.236223215766518 20.284274901763112 0.1134578081866028 0 -1 0
851 1 18.224413568035054 3.7936925015081835 6.175264219597596 0 0 0
852 1 18.276649785004892 6.351032705568893 4.2142475240170105 0 0 0
853 2 18.356021606833316 4.034196347410543 3.977344409892031 0 0 0
854 2 18.29931800157822 6.056156789270588 6.04965717861849 0 0 0
855 2 16.07984736176124 3.9881326782244595 6.1448421391697075 0 0 0
856 2 16.215947101576447 6.0713434787771 4.224585832229902 0 0 0
807 2 16.175973823601456 20.314855058803293 2.144627374020391 0 -1 0
815 2 16.243948591664534 20.34642083278086 6.012172238516582 0 -1 0
603 1 14.299122085064988 20.249920136225207 1.8790617659595332 0 -1 0
811 1 18.211660379801394 20.412189268210234 6.193452519029387 0 -1 0
611 1 14.209163101488452 20.29611848457305 6.137509232494174 0 -1 0
613 2 14.387495870485642 20.32857305191406 4.132489024280101 0 -1 0
809 1 16.422106894020615 20.37561710005352 4.096419306610087 0 -1 0
285 2 6.4062906698090405 8.130858303535076 0.061198006040841045 0 0 0
325 2 6.05101734904978 12.354622765215941 0.012998275175821306 0 0 0
321 1 3.9588679162758256 12.201897678755639 0.02511416392265346 0 0 0
125 2 2.061363022053111 12.132867892910879 20.40734504598433 0 0 -1
84 1 2.1162975182091173 10.133447243210766 20.36537569918983 0 0 -1
288 2 4.165008489687507 10.025141349116625 0.10340133285433202 0 0 0
85 2 1.9710631786802337 8.280591334480048 0.005132553702158328 0 0 0
83 1 1.9250497795426946 8.107746839887966 2.0170577930237803 0 0 0
86 2 2.064867514785274 10.134068482276193 1.995000618284119 0 0 0
91 1 2.1498379310565277 7.907012830941248 5.986498954062723 0 0 0
92 1 2.209024962051581 9.912724454513015 3.825152109141225 0 0 0
93 2 2.1575089601484594 7.98335786972591 3.9828707879471783 0 0 0
94 2 2.0470922431183403 10.322727079594621 5.937047644839168 0 0 0
123 1 2.191198399196103 12.003765718186134 1.9596935881192548 0 0 0
131 1 2.0131128129131426 12.230508458803772 5.782463562729759 0 0 0
133 2 2.3185424375786043 12.312432459357613 3.903464131742443 0 0 0
282 1 4.317325394334218 10.127938376900175 2.117743759516125 0 0 0
283 1 6.095606539453771 8.07205141515401 1.9033089409524941 0 0 0
286 2 6.174008631914189 10.232030149451415 1.9770002391653623 0 0 0
287 2 4.099950275473428 8.159011602450878 1.974745152616969 0 0 0
289 1 4.198261241436778 8.065308460218372 4.169222019448297 0 0 0
290 1 4.040560592734578 10.22077987030563 6.060683271167295 0 0 0
291 1 6.083530861609234 8.130597844842361 6.0259732838948175 0 0 0
292 1 6.075728922941812 10.172975980316853 3.9687990739590133 0 0 0
293 2 6.205623471413536 8.282434301294476 4.057488415891954 0 0 0
294 2 6.021191978021305 10.370521919674337 6.093784193745904 0 0 0
295 2 4.085688753188175 8.222621382182343 6.05740240173408 0 0 0
296 2 4.094399861596992 10.136003203899364 4.123161772257403 0 0 0
323 1 6.209371553910992 12.32826120889708 1.8495153738991408 0 0 0
327 2 4.160708031216906 12.277243941967862 1.938170105553509 0 0 0
329 1 4.121183449782522 12.187790863024995 4.169512733436554 0 0 0
331 1 6.20212062899019 12.26462751927749 5.828823068958759 0 0 0
333 2 6.081690994456197 12.316660794304347 4.034280945115921 0 0 0
335 2 4.052066337090045 12.317453083241364 6.114727996475585 0 0 0
95 2 0.029531514177221316 8.12125176929359 6.270982759404565 0 0 0
82 1 20.401566539425932 10.105741501280214 1.9140676629530609 -1 0 0
96 2 0.16569172101943364 10.19500210740779 4.1712092599027635 0 0 0
135 2 0.04508170755720477 12.195999970511567 6.0517913559491054 0 0 0
90 1 20.41241703380667 10.203504282838807 6.096269200240553 -1 0 0
129 1 0.21002209357277932 12.16147160824875 3.964366524077819 0 0 0
87 2 20.302016917088622 8.102744322257266 1.9565975175134405 -1 0 0
484 1 10.357687251154905 10.37303525510484 0.022554753654752346 0 0 0
488 2 8.097789083983567 10.228083094441509 0.042567108213255406 0 0 0
521 1 7.927714609998851 12.267293355623515 20.08119330902909 0 0 -1
485 2 10.269978557972216 8.261879445668558 20.413950819268194 0 0 -1
681 1 12.172122453895769 8.150512169699017 0.07127224222466176 0 0 0
482 1 8.12171939361129 10.288105024220277 2.0724610092229203 0 0 0
483 1 9.928043778884646 8.171911810713338 2.013738877426758 0 0 0
486 2 10.141249068290838 10.209334590822381 2.1204281055436605 0 0 0
487 2 8.232441107361414 8.147910679899828 2.0868924228996373 0 0 0
489 1 8.221729175008294 8.39576526407141 4.253890080970421 0 0 0
490 1 8.055828851795168 10.424359835804548 5.954060366786917 0 0 0
491 1 10.066539882643516 8.113566241579262 6.041543340465359 0 0 0
492 1 10.31089050234543 10.08601665092632 4.028413192952001 0 0 0
493 2 10.203715595345932 8.053604826483028 4.046328751517055 0 0 0
494 2 9.912475436116269 10.299038227924955 6.1470405664363525 0 0 0
495 2 8.150128104641347 8.110001843059935 6.094838037964607 0 0 0
496 2 8.057381448015942 10.191369563690431 3.997751277846525 0 0 0
523 1 10.127617414630212 12.40430970751092 2.0338861953645955 0 0 0
527 2 8.130121075029482 12.241205760118378 2.0139125373174234 0 0 0
529 1 8.275864849979856 12.217065548823044 3.9187253446882258 0 0 0
531 1 10.183697777089225 12.562143191216212 6.198811616862374 0 0 0
533 2 10.235888889119146 12.227614752855596 4.016704849797975 0 0 0
535 2 8.237303904882038 12.326424360350897 6.046353894860689 0 0 0
682 1 11.927693093659046 10.050512743852428 2.241847373896367 0 0 0
687 2 12.07778862245158 8.120472372358526 1.9815540585407136 0 0 0
689 1 12.399950770026692 7.946437485463187 4.085835413616844 0 0 0
690 1 12.385050660336722 9.870011920517742 6.152557850204056 0 0 0
695 2 12.251089364562064 8.034235569366352 6.087763913082396 0 0 0
696 2 12.279154035049283 10.13177996849503 3.9613232704294243 0 0 0
727 2 12.107383383895662 12.402211753791745 2.1018247814544897 0 0 0
729 1 12.193565297435127 12.278392994755016 4.1725620552338025 0 0 0
735 2 12.207467482039643 12.376893712529826 6.07044297016367 0 0 0
884 1 18.541765392115682 10.116226538295324 0.04379835229299932 0 0 0
685 2 14.29206245749508 8.237690751124509 0.07769120997080646 0 0 0
881 1 16.320539923645935 8.212503227076807 20.25666268223468 0 0 -1
121 1 20.208311669193062 12.123532491090623 20.403736221177034 -1 0 -1
88 2 0.04770225911118467 10.042994841062283 0.0623557809588276 0 0 0
127 2 0.14885376945575743 12.0152015147617 1.9724753408849163 0 0 0
89 1 0.0033200062596695193 8.10518366678383 4.217633024257774 0 0 0
925 2 18.237655541659034 12.078450076021513 0.032756785085946385 0 0 0
882 1 16.13744258610495 10.114362650110271 2.1518261233117517 0 0 0
883 1 18.305126068540872 7.969150923979444 2.149007658896036 0 0 0
886 2 18.183316608343016 10.235170371460086 2.121932845409612 0 0 0
887 2 16.216588924986088 8.065389678954647 2.267343215927246 0 0 0
889 1 16.35838699021673 8.188437610074368 4.246891971595356 0 0 0
890 1 16.578839062905093 10.20362708426148 5.9862377695463715 0 0 0
891 1 18.347806105131035 8.12569442541374 6.300822237562096 0 0 0
892 1 18.44990031171881 10.371518710282757 4.046704234805252 0 0 0
893 2 18.569485484141765 8.279003451554633 4.238646416003079 0 0 0
894 2 18.56907094379452 10.22087863895631 6.223614511545067 0 0 0
895 2 16.39163307881548 8.223105789043741 6.120159806600359 0 0 0
896 2 16.298180793321126 10.228912815324035 4.2598899282655065 0 0 0
923 1 18.155802768314636 12.370379955238523 2.108851004894466 0 0 0
927 2 16.307558498231575 12.093385757101402 2.1853462117463405 0 0 0
929 1 16.154661240642888 12.27223031765853 4.282282455974833 0 0 0
931 1 18.436605365736497 12.51479995075239 6.147493068478788 0 0 0
933 2 18.24217984301383 12.55227554229383 4.060047471411119 0 0 0
935 2 16.153390250891903 12.316913547716705 6.094753115601774 0 0 0
683 1 14.30259430633736 8.096246297817345 2.2564447389069664 0 0 0
686 2 14.22914894637675 10.232058188486583 2.113503127181447 0 0 0
691 1 14.251089059096415 8.156987022280786 6.02327694170333 0 0 0
692 1 14.16046176630775 10.247330308691545 4.0134708971612065 0 0 0
693 2 14.269174888439697 8.160310475497038 4.09978570046229 0 0 0
694 2 14.138734322539262 10.090709187522025 6.242276877082942 0 0 0
723 1 14.437204098734226 12.302764220550277 1.9979222511343 0 0 0
731 1 14.093693838323068 12.33095552424104 5.971549654675181 0 0 0
733 2 14.166265744897663 12.116858283403467 4.071348198554956 0 0 0
11 1 1.994253088106794 20.345290349550517 6.199699196495436 0 -1 0
15 2 20.200315138814158 0.020406320390731616 6.189677961461393 -1 0 0
13 2 1.877151280892518 0.02647283640104589 4.278494972967848 0 0 0
203 1 6.020727329461326 20.415671143260234 1.9379669893925358 0 -1 0
215 2 3.98325777409682 20.317591722551747 6.19538323013989 0 -1 0
9 1 0.03959198484768933 20.21924850227286 4.138472474568 0 -1 0
5 2 1.9807777808569054 20.29393956033304 20.404947756148292 0 -1 -1
205 2 6.224543475870736 20.39205333479108 20.319529284690216 0 -1 -1
126 2 2.0073321322539806 14.374154316146807 2.080759285981773 0 0 0
132 1 2.105615165781427 14.341416227321059 3.996468433118406 0 0 0
134 2 2.0290929783075407 14.093090642970616 5.909656464461571 0 0 0
163 1 2.336705046213787 16.24811109165692 1.865192748579372 0 0 0
166 2 1.946600746719548 18.26494398268738 2.05245584425152 0 0 0
171 1 1.9845109312219575 16.357919620559432 6.252883655579653 0 0 0
172 1 1.8770462791748634 18.410031725324338 4.124258626627359 0 0 0
173 2 2.0056227032142178 16.525816438783394 4.316896906076426 0 0 0
174 2 1.9758219533531376 18.39146743255517 6.342417598148166 0 0 0
322 1 4.154593900666556 14.160053292943733 1.9147455496517747 0 0 0
176 2 20.23842292513613 18.315136751987858 4.267470082213185 -1 0 0
326 2 6.099568366166221 14.37877463606099 1.9706933531533377 0 0 0
330 1 3.9411939365040274 14.286396207592881 5.990460309319004 0 0 0
332 1 5.992515101842505 14.166833155972785 3.969641236376639 0 0 0
334 2 6.125287716127306 14.316735953932648 6.142356556172126 0 0 0
336 2 4.093940529162647 14.528905548636027 3.9983356045877527 0 0 0
169 1 20.36513503487469 16.105067701132207 4.141481575587399 -1 0 0
211 1 6.175723868580272 20.15720842396522 6.259535617387796 0 -1 0
213 2 6.187689918502809 0.029434073578507025 4.268408262343254 0 0 0
164 1 1.9384537325450797 18.102488868283583 0.023354060129185377 0 0 0
362 1 3.9037070612611435 18.51040951980527 2.063374461811924 0 0 0
363 1 6.014342859182491 16.542240454283935 2.145724472795707 0 0 0
366 2 6.283944199716208 18.506060960970785 2.1064660209114083 0 0 0
367 2 4.172681767175431 16.543738732617683 1.990715928556175 0 0 0
369 1 4.010626200473894 16.466514322517195 4.148079655454564 0 0 0
370 1 3.877126072731966 18.35144455748891 6.363063460118819 0 0 0
136 2 20.202223266092204 14.142240625341017 3.9337439344119542 -1 0 0
162 1 20.357034252509955 18.218721915693408 2.0207091255133016 -1 0 0
371 1 6.087588283050597 16.338246818875124 6.1071918048529215 0 0 0
372 1 6.060473398602264 18.42778757556988 4.001796978404224 0 0 0
373 2 6.323515493799663 16.451766589359764 4.086008048634767 0 0 0
374 2 6.003455947602178 18.368174317372397 6.339362669907771 0 0 0
375 2 4.059230271532827 16.228954023718238 6.188849621644082 0 0 0
376 2 3.973829057315606 18.361450305433014 4.158355139330927 0 0 0
413 2 10.30187967781534 0.05856064872172166 4.014527390169297 0 0 0
601 1 12.280818633639662 0.2571965755575201 0.05681755710145863 0 0 0
403 1 10.380125172728684 0.006665337034599572 2.046336258904017 0 0 0
409 1 8.012672831301543 0.06254763303495456 3.7878514633161493 0 0 0
407 2 8.052957035276505 0.10514789222882405 1.9455608369869417 0 0 0
607 2 12.331823304537036 20.407423460391044 1.9717361724612303 0 -1 0
411 1 9.834300356654252 0.1084515099426754 6.061647904669515 0 0 0
415 2 8.031907432973235 0.2425660351724251 6.185365868149262 0 0 0
728 2 12.304288391086887 14.551892411991869 20.36265610429364 0 0 -1
564 1 10.33626686575781 18.481118000098153 0.15413389536117122 0 0 0
522 1 8.138199453623038 14.432743258195147 1.750006712701093 0 0 0
526 2 10.184294037462701 14.408114474954068 2.0580803248437713 0 0 0
530 1 7.935587612077999 14.18876960044144 6.068867279189763 0 0 0
532 1 9.938926770739528 14.376896817851355 3.974877202455702 0 0 0
534 2 10.221428020179475 14.411879010385194 5.834987013460462 0 0 0
536 2 8.198606213375106 14.285473510596052 3.9318605358507512 0 0 0
562 1 8.166226803391531 18.657875608396758 2.0599939424490863 0 0 0
565 2 10.33785738621386 16.25673470300677 20.41405843368659 0 0 -1
563 1 10.042689964749668 16.347620890005384 2.0903610182197028 0 0 0
566 2 10.33173051256916 18.559195666104316 2.0766722042317776 0 0 0
567 2 8.04566908117154 16.37296698924876 2.009686405255523 0 0 0
569 1 8.213616133460055 16.504139906138292 3.9417089616318792 0 0 0
570 1 7.968316964272001 18.39556834999841 6.057345192435825 0 0 0
561 1 8.129608519463384 16.249338073994185 20.374755255310856 0 0 -1
571 1 10.222480319321098 16.46321988381161 5.871650864191812 0 0 0
572 1 10.212420614226007 18.51635162413201 4.083642484464783 0 0 0
573 2 10.16931979563881 16.65901595500135 4.094874383292104 0 0 0
574 2 10.053934927536142 18.684240444696606 5.99187282490076 0 0 0
575 2 8.00661995597649 16.242798156417912 6.089303585133968 0 0 0
576 2 7.950285795239629 18.51996800352911 4.075392128206518 0 0 0
722 1 12.301871716342879 14.389381115767524 2.007251223323427 0 0 0
730 1 12.273916680168949 14.444858358155635 6.086190237261265 0 0 0
736 2 12.311222416356967 14.477587796633326 3.9365846690005655 0 0 0
762 1 12.375996291914356 18.407917743095854 1.9236683138252746 0 0 0
767 2 12.134496718000898 16.494894268140953 2.1536245000909813 0 0 0
769 1 12.059830414320505 16.362178700367807 3.89976199710682 0 0 0
770 1 12.376222242639031 18.409276115104078 5.855349443363321 0 0 0
775 2 12.179246697309926 16.4265160084696 6.032470666285435 0 0 0
776 2 12.069312254638982 18.489733112081776 3.926813096401933 0 0 0
813 2 18.2455253776231 20.383133381618887 4.178349100576317 0 -1 0
7 2 20.28162742617547 20.41211256787733 2.216392638374878 -1 -1 0
175 2 0.0607091773683503 16.203465898552338 6.045246386194926 0 0 0
803 1 18.508011481326136 20.32915823417367 2.0591628003773335 0 -1 0
962 1 16.458122171258836 18.137532058305506 1.928734897747603 0 0 0
963 1 18.427867045499376 16.51394642824132 1.8249181892524895 0 0 0
966 2 18.353460471281064 18.391335488700435 2.0009574566836505 0 0 0
928 2 16.183213022691724 14.365387745747544 20.36545899555806 0 0 -1
764 1 14.274385721157191 18.302496522068736 20.388055490014004 0 0 -1
765 2 14.190790347239592 16.445447862610308 20.275184462963736 0 0 -1
961 1 16.486882127486744 16.175876093955246 20.353137842656178 0 0 -1
967 2 16.314549003084505 16.315026987205062 2.159924774484658 0 0 0
969 1 16.224808495616355 16.505069390426563 3.9341902380978477 0 0 0
970 1 16.257189266140188 18.274649691898812 6.078854721439839 0 0 0
971 1 18.278109823839166 16.422703791899835 6.217037025808737 0 0 0
972 1 18.203204649910997 18.304204811631735 4.239124999732793 0 0 0
973 2 18.34995082098254 16.39222045422038 4.083484978518959 0 0 0
974 2 18.37051894793858 18.42258378770193 6.217592165405374 0 0 0
975 2 16.485744589240877 16.36662262082579 6.0610293566857125 0 0 0
976 2 16.351350632206746 18.42465206745589 4.1357709641958955 0 0 0
726 2 14.290094001090877 14.450828740882141 1.9820103317543638 0 0 0
732 1 14.125798262654742 14.180475494437298 3.8880490441650504 0 0 0
734 2 14.168932609589334 14.20059968581774 6.202879243209635 0 0 0
763 1 14.44214582606682 16.37005103264208 2.222033766645863 0 0 0
766 2 14.268014075618886 18.18312235953501 2.023291663884052 0 0 0
771 1 14.036789181771407 16.142877411389488 6.138391795444487 0 0 0
772 1 14.403846426004781 18.49944321000842 3.9953869591018503 0 0 0
773 2 14.288786234692315 16.460691310327253 4.083929241007051 0 0 0
924 1 18.21204098077485 14.291349476587575 20.316065435736814 0 0 -1
774 2 14.385972174187987 18.200931367074244 6.015552082032393 0 0 0
968 2 16.393658119061655 18.228851796542642 0.12758619890983114 0 0 0
922 1 16.14360664983966 14.41026483399168 2.1809564324283732 0 0 0
926 2 18.21085539929878 14.334437820304606 2.000117956337274 0 0 0
930 1 16.28823717626087 14.41167478652624 6.2352427189863375 0 0 0
932 1 18.273019717035144 14.394957217646107 4.025582695247195 0 0 0
934 2 18.33827672781699 14.280258038732164 6.032957401567953 0 0 0
936 2 16.06341379766469 14.291597584862657 4.159596766921639 0 0 0
130 1 20.23567697940996 14.300273286262778 6.033440300803435 -1 0 0
170 1 20.243527148525725 18.64083290213591 6.3003040283468295 -1 0 0
167 2 0.04562661605926333 16.354156836238754 1.9365700827381607 0 0 0
122 1 0.22104299715065182 14.291297814986125 1.732655452120933 0 0 0
223 2 4.184156887970372 20.255263042497372 10.267731393889903 0 -1 0
21 2 2.0727324716489197 20.41346267399425 8.172777756265031 0 -1 0
217 1 4.093555049653983 20.171103871883634 8.28828631194316 0 -1 0
219 1 6.129498775124466 20.239018395160397 10.275782001229642 0 -1 0
229 2 6.325089778043311 20.40822184087489 12.238337806963326 0 -1 0
19 1 1.9045653607933304 20.403162703066403 10.151016652445525 0 -1 0
17 1 0.00851324226301292 0.003489352248132041 8.231254144525087 0 0 0
24 2 20.382381813332298 1.9424248378094064 8.231558136958057 -1 0 0
57 1 20.412024388924817 3.9517386610335787 8.27620011382444 -1 0 0
232 2 4.213732314021989 1.900876286160118 12.077138961737232 0 0 0
257 1 4.135882854862718 4.024093703375058 8.120904131026201 0 0 0
258 1 4.110539382841846 6.0801075995631475 10.035202972668495 0 0 0
259 1 6.282171213907618 4.2934879415935105 10.105463962881643 0 0 0
260 1 6.2031175688945455 6.467782773504928 8.113067027064332 0 0 0
261 2 6.121149454476001 4.212992124420707 8.036499804405027 0 0 0
29 2 2.09486478353668 20.184637457109687 12.221515726305338 0 -1 0
225 1 4.05707692654936 20.158822577591316 12.504973697679818 0 -1 0
64 2 20.282697249744277 5.977257783386999 8.109906044127653 -1 0 0
262 2 6.172304616639879 6.241814022196374 10.049866248879544 0 0 0
263 2 4.093359223935266 3.8441420397380432 10.09760186399541 0 0 0
264 2 4.003313296199823 6.05733325491079 8.02231365810446 0 0 0
265 1 4.25645431450396 4.1520070274668495 12.038501416627708 0 0 0
268 1 6.057218092294976 6.04062978850822 12.269288165891464 0 0 0
269 2 6.21492285839133 4.098852832802429 12.17609301651019 0 0 0
272 2 4.201304172932236 6.088004693464764 11.998802658668845 0 0 0
20 1 2.084021612942886 1.9832861388193797 8.17849233963822 0 0 0
22 2 2.1000545215497297 1.8420787715052311 10.244123931434684 0 0 0
28 1 2.3103546733536344 1.9529256147196672 11.943444774630207 0 0 0
59 1 2.0597342533789638 4.193789408507504 10.222144308451188 0 0 0
60 1 2.048952135075702 6.237383105404008 8.213584067392127 0 0 0
61 2 1.9443537481287128 4.115423265401164 8.28778895126059 0 0 0
62 2 2.130277007325905 6.208753344769072 10.431198902849575 0 0 0
68 1 1.7959397634532974 6.030048319958741 12.214911431084497 0 0 0
69 2 2.0858738162415014 4.115171150412239 12.063686114925469 0 0 0
218 1 4.1624996520826985 1.9584605014423833 10.254402907813676 0 0 0
220 1 6.206430367664951 1.8098663831759914 8.38634748127149 0 0 0
222 2 6.282547558425304 2.010871874428574 10.325836711288968 0 0 0
224 2 4.24809493606207 1.8688103371983162 8.213075023052344 0 0 0
228 1 6.05326327129237 1.8154091990722458 12.290860386062343 0 0 0
425 1 8.337433137826595 0.01273203814443491 12.152784861723049 0 0 0
421 2 10.14451968824442 0.1899523993716438 8.052693730399836 0 0 0
465 1 7.973268574099247 4.36487686252678 12.271353528317468 0 0 0
468 1 10.35707053424871 6.039161477302981 12.272678871174362 0 0 0
469 2 10.280449197745243 4.124527034657691 12.234514849604412 0 0 0
472 2 8.217363928310242 6.112450648470729 12.126822113625133 0 0 0
618 1 12.296307128477935 2.1503731620508533 10.248500020768473 0 0 0
624 2 12.232328458778587 1.9953530243799986 8.217172341131434 0 0 0
632 2 12.207851620605576 1.7912192494384205 12.196116415628193 0 0 0
657 1 12.301237404488072 3.8599902914028803 8.119391716357356 0 0 0
658 1 12.26664041583004 6.27511180144494 10.085951446137148 0 0 0
663 2 12.314926809752516 4.017388572074567 10.284990745154932 0 0 0
664 2 12.378771141689187 6.1579980733183515 8.167286190306235 0 0 0
665 1 12.231851164906157 4.137552738718032 12.154456877890741 0 0 0
672 2 12.365937188759261 6.185111630337897 12.313346521867603 0 0 0
418 1 8.368149430255063 2.361279772485751 10.330831967969578 0 0 0
420 1 10.106546476612118 2.2659327474309707 7.995639290354125 0 0 0
422 2 10.253924973018357 2.091222898310016 10.051277888121042 0 0 0
424 2 8.025280689504132 2.180952687909004 8.243409415181281 0 0 0
428 1 10.107432180628374 2.305849635421822 12.306945959123599 0 0 0
432 2 8.186120518015214 2.1393952765885533 12.259797155349721 0 0 0
457 1 8.184664710284055 4.14191013416775 8.10590520762552 0 0 0
458 1 8.091212224419609 6.359341540433661 10.26781039022473 0 0 0
459 1 10.236617876774726 4.133819430263603 10.117845780828047 0 0 0
460 1 10.314654280857885 6.083347269785648 8.265034321254644 0 0 0
461 2 10.282519305444959 4.09198314074839 8.138795181572101 0 0 0
462 2 10.417320130462425 6.147814028576015 10.240710077137312 0 0 0
419 1 10.22252777854288 0.3179006324496122 10.139229560093279 0 0 0
463 2 8.135329468514096 4.1753826827326765 10.306795870016318 0 0 0
464 2 8.230627781018418 6.1115236091586675 8.313314578991735 0 0 0
617 1 12.209293382526242 20.247197962818046 8.157831763619363 0 -1 0
25 1 0.11598889483460474 0.005358871442379819 12.196597858993437 0 0 0
823 2 16.56855912279276 0.06478878278817025 9.951649333595752 0 0 0
621 2 14.23605900119939 20.295080537541253 8.217947842527535 0 -1 0
817 1 16.112168599566203 20.22855956928465 8.007975606711538 0 -1 0
23 2 0.053413967049781796 20.299370250645623 10.214749737921904 0 -1 0
829 2 18.489799636533064 0.15854990933051935 12.249283982521742 0 0 0
825 1 16.231342386697566 20.401796236486934 12.311478832424399 0 -1 0
861 2 18.12188175842856 4.064010128578892 8.26449996514237 0 0 0
862 2 18.41377271570211 6.0622796414528635 10.40177892430085 0 0 0
863 2 16.40106040900484 4.011326394491525 10.322490649966365 0 0 0
864 2 16.41081205806554 5.964254366657977 8.187376793996929 0 0 0
865 1 16.38148498699977 3.671100894184535 12.443601860048842 0 0 0
868 1 18.333843763002722 6.255391412050456 12.157829202563422 0 0 0
869 2 18.296379072153012 4.078453063517439 12.379517930938045 0 0 0
872 2 16.263309094500237 6.145175299728831 12.054806433579294 0 0 0
620 1 14.353604702741203 1.9538343199941182 8.076602641451421 0 0 0
622 2 14.452942008526618 2.1519718082391415 10.176874183334553 0 0 0
628 1 14.230952163458959 1.9085279752766136 12.177048249216998 0 0 0
659 1 14.534050452575073 4.0299946573245755 10.299561681841682 0 0 0
660 1 14.295987310129883 5.953331989862016 8.243073506083133 0 0 0
661 2 14.400597148538095 3.9314278896946413 8.194995922961084 0 0 0