LAMMPS data file via write_data, version 28 Mar 2023, timestep = 300000, units = metal

1001 atoms
2 atom types

0 20.41714 xlo xhi
0 20.41714 ylo yhi
0 20.41714 zlo zhi

Masses

1 6.941
2 18.9984032

Atoms # atomic/kk

6 2 1.9241261652691204 2.0275460861959917 2.1305985375449166 0 0 0
12 1 2.0358897188482667 2.096849734817909 4.046531669411129 0 0 0
14 2 2.093073490694469 2.0672112315274913 6.180542223653082 0 0 0
43 1 1.8269219394397236 4.018019365271517 2.036803627227799 0 0 0
46 2 1.942437369222289 6.305279651182248 2.028351243536295 0 0 0
51 1 1.958213314513153 4.0237704545045485 6.169333605960597 0 0 0
52 1 1.9038923321163668 6.305613174551251 4.104409700674282 0 0 0
53 2 1.9337136589455513 4.255996064596728 4.110055591300519 0 0 0
208 2 4.0594684349094425 2.081500008512115 20.40551178006494 0 0 -1
54 2 1.9434301100648224 6.0826787672061 6.117586472083963 0 0 0
202 1 4.0154830484499975 1.9685093613922149 1.9859261254631329 0 0 0
241 1 4.096283749758552 4.167400663494681 0.1920214289793842 0 0 0
206 2 6.112280302777499 2.143486097552755 2.028504108790329 0 0 0
4 1 1.9681228254847967 2.1064212601466363 20.24933223699189 0 0 -1
210 1 4.033464195129793 2.1475531699162262 5.973021733203326 0 0 0
245 2 6.168583893155962 4.072979346842562 0.03373093750477646 0 0 0
212 1 6.1637671764457265 2.0811194243832443 4.110178233753106 0 0 0
214 2 6.039958023203781 1.9851172681884985 5.9638413221383875 0 0 0
216 2 4.115186530854153 2.1653892905472865 3.9792966016781044 0 0 0
242 1 3.7580983473473353 6.1082669638392355 2.1150308623846032 0 0 0
243 1 6.024848781478008 4.1607157249344695 2.0139968451623105 0 0 0
246 2 6.065898677207369 6.071551436109033 2.045640202065669 0 0 0
247 2 4.129675392879174 4.15451192343126 2.1214259163612565 0 0 0
249 1 3.9590489944777993 4.077783424889546 4.088010975268938 0 0 0
250 1 3.891292950323027 5.9594141107233565 6.16789739483653 0 0 0
251 1 6.164281969886995 3.9337757249151193 6.0551827313010085 0 0 0
41 1 20.343282993864868 4.162321317159367 20.300364881174595 -1 0 -1
252 1 6.189606139089186 6.282412062246027 4.217756612123251 0 0 0
253 2 6.179597969839316 4.019624192807893 4.150032184616788 0 0 0
254 2 6.161663148847681 6.176649894784282 6.110192460578246 0 0 0
255 2 4.0445737215306234 4.077601482071538 6.060587862663509 0 0 0
201 1 4.0557057641140934 0.10117164970791137 20.348620017656646 0 0 -1
256 2 3.9922525992154596 6.220757401256923 4.062036509385914 0 0 0
56 2 20.31590317256278 6.1996215597426785 4.169745104589858 -1 0 0
2 1 20.41523266887541 1.9024330791437576 2.1321421850027 -1 0 0
47 2 20.408868215033056 4.058235233372111 2.1596119339354654 -1 0 0
50 1 20.3448272107189 6.355585361230534 6.184493750916114 -1 0 0
203 1 6.339534348168632 0.07908072681198881 1.9367164331335465 0 0 0
42 1 20.29853456218432 5.943022085324925 2.206832173445354 -1 0 0
7 2 0.11891759932212152 0.004298348203698167 2.144607722715204 0 0 0
209 1 4.1766372753552785 20.3896120448803 4.27090092340134 0 -1 0
11 1 2.1223421155179047 0.02795704041176113 6.306435845932344 0 0 0
211 1 6.000509569521237 20.343002051771204 6.145566059316295 0 -1 0
207 2 4.158579276747831 20.311300609032845 2.162833925491347 0 -1 0
402 1 8.216887728292926 2.019937882613717 1.9464099993569521 0 0 0
406 2 10.110928820609201 1.966647540393885 2.1032877433755868 0 0 0
410 1 8.06802453122499 2.067020747114528 6.113891227233425 0 0 0
412 1 10.172660408581258 1.985162173850117 4.2063964448989974 0 0 0
414 2 10.248449030285615 2.2130909949774518 6.177508941497632 0 0 0
416 2 8.193088029588061 2.0361747746773053 4.122193828788675 0 0 0
442 1 8.126721122312215 6.199384037999656 1.984968571917752 0 0 0
443 1 10.331336427710264 3.9915608401846834 2.127174843088339 0 0 0
446 2 10.30089906676637 6.147994159149593 2.0820587710808245 0 0 0
447 2 8.182111019028973 4.1756870924631535 1.9328990551069247 0 0 0
449 1 8.188176507614608 4.139598343644387 3.8930043133029595 0 0 0
450 1 8.079754271544864 6.048112407923863 6.025709928255465 0 0 0
451 1 10.18032338380026 4.073412048163961 6.126352696707603 0 0 0
452 1 10.032914525414766 6.051373979689835 3.9858215316844254 0 0 0
453 2 10.2555732938402 3.941427009657371 4.022014463502292 0 0 0
454 2 10.227928000172811 6.001395916853131 5.999133963502453 0 0 0
455 2 8.13681484334338 4.098054489653777 5.937762764022812 0 0 0
456 2 8.108136646374806 6.145232612906842 3.9877506431066325 0 0 0
602 1 12.334942392486758 2.0150641118569808 2.0168604356564277 0 0 0
610 1 12.38959518988929 2.200292116444504 6.182079383755313 0 0 0
616 2 12.292287882059037 2.0676985977475346 4.1561841342517445 0 0 0
642 1 12.201318595682562 6.054444516990601 2.110321601725223 0 0 0
441 1 8.359355841272611 4.082296377598267 20.374889410575737 0 0 -1
647 2 12.293316472518322 4.020787622039096 2.1070441660224897 0 0 0
649 1 12.303564021849848 3.9547770300031853 4.177128544123266 0 0 0
650 1 12.346923401562997 6.2938103908082885 6.176784359231414 0 0 0
655 2 12.307951452917347 4.019286622109522 6.170411813169949 0 0 0
656 2 12.303519904360469 6.130631187252938 4.150043744968379 0 0 0
403 1 10.163733797386083 20.27111890836263 2.0532536137324544 0 -1 0
609 1 12.271753684528845 0.044020942243673866 4.233395935437652 0 0 0
607 2 12.261362191635234 0.032009448350368785 2.1773473922936493 0 0 0
55 2 20.39094182320575 3.9322676369805105 6.252552393382172 -1 0 0
16 2 20.361427921122 1.974399434996711 4.177316461181016 -1 0 0
49 1 20.372441032639145 4.121703614003487 4.029206825152927 -1 0 0
10 1 20.355311164725528 1.988036122817541 6.237267012166417 -1 0 0
611 1 14.040873407886103 20.22181401284945 6.1927896559619136 0 -1 0
815 2 16.29443125604783 0.06878080190472247 6.231080257328304 0 0 0
653 2 14.19481774244661 4.083806432938663 4.2562580650836095 0 0 0
654 2 14.291276994060793 6.232539435615664 6.262587675094753 0 0 0
802 1 16.256479516831785 1.9376980307137361 2.109926401719197 0 0 0
806 2 18.26865403929309 2.135846341030822 1.951337522540319 0 0 0
810 1 16.240796598828272 2.2149625178218204 6.160085729258966 0 0 0
812 1 18.41531108520741 2.132096160935973 4.088496570314741 0 0 0
814 2 18.220803240891478 1.9607054565989288 6.186490494999984 0 0 0
816 2 16.199595967407145 1.9673562811813103 4.141776280791153 0 0 0
842 1 16.06969617151689 6.051428335685689 1.9995370571287705 0 0 0
843 1 18.25243550011728 4.116760117350617 2.1219922868557966 0 0 0
846 2 18.283827458076583 6.07683485218053 2.0536782413644077 0 0 0
847 2 16.09707836977479 3.9999880075253365 2.2064550026114387 0 0 0
849 1 16.082092555717107 4.162972794475167 4.24700628894456 0 0 0
850 1 16.15791009157719 6.303884937863288 6.1816090288503265 0 0 0
851 1 18.244866124832257 4.047094777325988 6.200922731161864 0 0 0
852 1 18.398683731999753 5.938778968812611 4.0658725253115815 0 0 0
853 2 18.266000981520076 4.070124140940654 4.2061579924629555 0 0 0
854 2 18.44599904914622 6.193645014834934 6.14956742324117 0 0 0
855 2 16.262241958372403 4.129842310182475 6.25383928519576 0 0 0
804 1 18.40901680726883 2.1597372667078165 0.04166531705280921 0 0 0
856 2 16.355026732568845 6.155071045350655 4.1301676773139935 0 0 0
606 2 14.306977324874863 1.87302049906283 2.01333568108693 0 0 0
612 1 14.27037241667411 2.1381510956069247 4.293896885442489 0 0 0
614 2 14.344036526285903 2.183900079096003 6.196583229576971 0 0 0
643 1 14.260368437863688 3.974807757238247 2.1047544556178135 0 0 0
646 2 14.211891303069432 6.098119437960609 2.2031880958271004 0 0 0
651 1 14.228889272232344 4.192226682824721 6.437896999099745 0 0 0
652 1 14.17150942478533 5.965836374572873 4.251779643426679 0 0 0
807 2 16.256910002027496 0.022984567788320476 2.016371280920928 0 0 0
644 1 14.173271506621168 6.041157263363391 0.03572494405507466 0 0 0
841 1 16.267712975621954 4.025653022550826 20.294128682787843 0 0 -1
844 1 18.597993185972438 6.056818688848332 20.33627600293544 0 0 -1
811 1 18.427126291269676 20.370927584592632 6.19277701052149 0 -1 0
613 2 14.262709997043151 20.330045043920414 4.159058402059762 0 -1 0
809 1 16.34700795714971 20.39469812912766 4.170403197355276 0 -1 0
803 1 18.19438090700673 0.1293269043305435 2.1256863219124056 0 0 0
294 2 6.191752138099169 10.139679660283365 5.986959475955593 0 0 0
295 2 4.021309107233031 8.098103119348814 6.1101916170884145 0 0 0
296 2 4.145769036891983 10.018359875157648 4.013886344689399 0 0 0
323 1 6.087904697537641 12.404099425466526 2.187478196320715 0 0 0
327 2 4.010407834546848 12.183089728863393 2.0661174115476855 0 0 0
329 1 4.035896568092146 12.179332631737124 4.105591114711022 0 0 0
331 1 6.190321950159034 12.189222847215998 6.102122515064069 0 0 0
333 2 6.175918933757162 12.15989668566841 4.152963548251354 0 0 0
335 2 4.181140472868065 12.244024892668698 6.039379644486193 0 0 0
83 1 2.155639017115206 8.171938343070156 2.25853513406418 0 0 0
86 2 1.9952026121014532 10.22595648057061 2.0700347260077927 0 0 0
91 1 2.1448467482679887 8.063464707784947 6.154243252888942 0 0 0
92 1 2.113916357694177 10.170460624260619 4.16927760532953 0 0 0
93 2 1.923978897563521 8.152423981369715 4.081768137316282 0 0 0
94 2 2.168918502036657 10.071505720581602 6.012107554228683 0 0 0
123 1 1.9905177703936356 12.192666198227878 2.066438376881319 0 0 0
131 1 1.9462708253669212 12.211480351502606 6.0509673383042495 0 0 0
133 2 1.9680674448529438 12.204372181425411 4.098897224276874 0 0 0
282 1 4.00781834139485 10.207635714947711 1.9672970043488045 0 0 0
283 1 5.886038583354862 8.074510887402322 1.946633456809794 0 0 0
121 1 20.39946524784075 12.226460211427725 20.408299843789983 -1 0 -1
288 2 4.013957662658451 10.260373558007357 20.32934602754271 0 0 -1
325 2 6.3338359129880955 12.28689347041755 20.381645986820956 0 0 -1
321 1 3.9784003036635833 12.310570265585817 0.042030792417460106 0 0 0
89 1 20.28675669090037 8.215937746540622 4.0680818182159 -1 0 0
95 2 0.002628736598634438 8.208184797250167 6.3449598545691765 0 0 0
286 2 6.054710967894999 10.154763809824248 1.8630784429646194 0 0 0
287 2 3.9706473026954905 8.041010489428883 1.957384456657508 0 0 0
289 1 4.051697518706359 8.162293127233712 4.173749230260953 0 0 0
290 1 4.018378274207411 10.166457485024393 6.009898503668359 0 0 0
291 1 6.040353137737129 8.235490061257664 6.048777198338158 0 0 0
292 1 6.206042392057703 10.03724073619797 3.9219245247753873 0 0 0
293 2 6.0936710486422845 8.128734688006478 4.132896157969267 0 0 0
88 2 0.05623501593195712 10.123388883684045 20.35695889575119 0 0 -1
125 2 1.930314003521057 12.122375786242745 20.366539473953008 0 0 -1
285 2 6.1843921649598155 8.10920064282143 0.12851851351750204 0 0 0
482 1 8.278848242837133 10.048254501792782 2.079998335426426 0 0 0
483 1 10.176837917459165 8.21428924035417 1.919609546680749 0 0 0
486 2 10.151337311183884 10.144738379222499 2.0509961823683267 0 0 0
487 2 8.155200870829947 8.060531748042806 2.0401582734057095 0 0 0
489 1 8.121202064849555 8.068412674272077 4.040775839951445 0 0 0
490 1 8.105322738727613 10.18881456652917 6.240695251314801 0 0 0
491 1 10.120867371436024 8.033182437132053 6.019190677914235 0 0 0
492 1 10.106056257664248 10.11692322690014 4.034592276139069 0 0 0
493 2 10.20451007963308 8.15405757341236 3.9640766489161137 0 0 0
494 2 10.321848066205042 10.241419774510176 5.987569626239707 0 0 0
495 2 8.053818684167455 8.091058898508894 6.008760345416872 0 0 0
496 2 8.119818034668558 10.00973746203422 4.108719955737413 0 0 0
523 1 10.192324170766371 12.370042351183834 2.043563032275158 0 0 0
527 2 8.231500368195327 12.163339103337737 2.0879988381983443 0 0 0
529 1 8.192546473410077 12.130170909601386 4.146184473436314 0 0 0
531 1 10.355085019124267 12.235119788679699 5.8710053690517725 0 0 0
533 2 10.267870816269147 12.231482591986117 4.101541498569023 0 0 0
535 2 8.263043270903626 12.434851427024345 6.121517715462723 0 0 0
682 1 12.271248208532425 10.032025235942335 2.1030496561310073 0 0 0
687 2 12.19898633277305 8.106002274400055 2.0920039995603275 0 0 0
689 1 12.115378841470562 8.25657695039155 4.131864736338312 0 0 0
690 1 12.34448945086222 10.153606522508017 6.0397915531105175 0 0 0
695 2 12.275258157047139 8.22547566672804 6.118104143176791 0 0 0
696 2 12.253423731692463 10.091277242236009 4.059509682752785 0 0 0
727 2 12.185380475704994 12.226789699813189 2.0526947270331197 0 0 0
729 1 12.349328209369567 12.113000913154089 3.9713469278793703 0 0 0
735 2 12.274177505977937 12.115906416919838 6.086133717742646 0 0 0
525 2 10.15707182840604 12.229391308827529 0.008625417375689892 0 0 0
688 2 12.368550220118845 10.223558470783203 0.08485157983528914 0 0 0
721 1 12.36701186874491 12.145485342625776 0.015920021041921473 0 0 0
127 2 0.06640638372776811 12.179244800584472 2.0519838872034235 0 0 0
129 1 20.355990134708907 12.008044995853039 3.9132514753939773 -1 0 0
87 2 0.06901294808877556 8.196289731111213 2.0664797554231353 0 0 0
96 2 0.06339185187502801 10.001405668731735 4.147553140352155 0 0 0
135 2 20.27625461856712 12.219126824101187 6.034910996213669 -1 0 0
90 1 0.1819942407168895 9.941900952163605 5.947552401297661 0 0 0
82 1 0.06758444145236188 10.095241474239616 1.9733711093660269 0 0 0
683 1 14.144603417282326 8.280501107233125 2.216571192118467 0 0 0
686 2 14.318131569064027 10.18347606620378 2.1192934112451747 0 0 0
691 1 14.30146629094963 8.135589436783494 6.118935587441958 0 0 0
692 1 14.473121230249264 10.221093916835523 4.1418437634234015 0 0 0
693 2 14.242610613415552 8.048810039484335 4.253197735764868 0 0 0
694 2 14.26897298422414 10.118229190083671 6.096720572757228 0 0 0
723 1 14.280467937444927 12.080210290327738 1.9711774322671085 0 0 0
731 1 14.152621691182917 12.24084811861582 6.083353508872933 0 0 0
733 2 14.233282548857927 12.1927017331958 3.9443274196577067 0 0 0
882 1 16.467487390356002 10.299156653704307 1.9417819108866903 0 0 0
883 1 18.329569605295422 8.172264182226785 2.159563415740709 0 0 0
886 2 18.477912531211146 10.050920617960829 2.0363825361392784 0 0 0
887 2 16.424502130236615 8.159588228538757 1.97668597332572 0 0 0
889 1 16.36709772206112 8.157568144359953 4.197713057769702 0 0 0
890 1 16.28789165265359 10.127799154760456 6.021420034209494 0 0 0
891 1 18.35236845351157 8.263141176627133 6.190511995327419 0 0 0
892 1 18.39220806804699 10.116616474645655 4.0670711786066684 0 0 0
893 2 18.416435605858876 8.134615158028376 4.087751111488992 0 0 0
894 2 18.331295137168432 10.085538490962659 6.063415851877929 0 0 0
895 2 16.36757702531842 8.190113150000922 6.210896160422414 0 0 0
896 2 16.470834356977974 10.270241403660354 4.037096937261984 0 0 0
923 1 18.456977434330526 12.351048111159429 2.0118750103034704 0 0 0
927 2 16.255711637576525 12.295604483452108 2.1096170533198157 0 0 0
929 1 16.260588489383068 12.274974223086991 4.114560479041916 0 0 0
931 1 18.33995109584801 12.012617917082387 5.936731225588455 0 0 0
933 2 18.457087271180754 12.162844737629769 3.886590783511899 0 0 0
935 2 16.36665837079253 12.16248515653818 6.153415049462526 0 0 0
888 2 16.416682615984712 10.281094351039243 0.1059381311115192 0 0 0
684 1 14.50060649651693 10.233230790676041 0.07166577773115934 0 0 0
925 2 18.399229207250677 12.211970078783986 20.312327607446626 0 0 -1
685 2 14.298668554426351 8.196685619910081 0.10066036058517407 0 0 0
725 2 14.329420948049858 12.226214193845449 0.056453730783101744 0 0 0
921 1 16.394131235260872 12.351252741319934 0.0063602988531124005 0 0 0
128 2 0.09810186159833398 14.269582935858768 20.353883188644016 0 0 -1
124 1 2.04707549486743 14.282030188433797 0.1494789034705306 0 0 0
3 1 2.2290998640269786 0.04720246436478348 2.162671044487871 0 0 0
213 2 6.276955479534539 0.022662056152123293 4.020537951290099 0 0 0
215 2 4.066002480170769 0.08818559947135916 6.176442831911343 0 0 0
13 2 2.1869519067155028 0.12111485427342403 4.138991097534056 0 0 0
126 2 2.1354358538951903 14.190036271634643 2.167410707764553 0 0 0
132 1 1.9590024758727793 14.268129456489568 4.0462172098326885 0 0 0
134 2 2.1990586013857367 14.21263251908384 6.053350198203647 0 0 0
366 2 6.137219123419091 18.2297328094482 1.9766068726774275 0 0 0
163 1 2.1030870242747466 16.374688421685885 1.8300910935629382 0 0 0
367 2 4.022752899805632 16.139671172314884 2.013707488718099 0 0 0
166 2 2.0866060316189246 18.515752724249346 2.0988615847749656 0 0 0
171 1 1.9688883650369586 16.523655789633548 6.125321338052554 0 0 0
369 1 4.154537408853321 16.187979560293968 4.060137666790395 0 0 0
172 1 2.052029178732968 18.48456850357734 4.042432145168093 0 0 0
370 1 4.056079375474211 18.255256760771807 6.158963762504747 0 0 0
173 2 2.0012066784579927 16.299088266972397 4.080895302017195 0 0 0
374 2 6.235133142190414 18.359832718752408 6.091625326506262 0 0 0
174 2 2.0143656645066472 18.447520943389634 6.108406858256868 0 0 0
322 1 4.020680227080729 14.291829996006685 2.171861875572519 0 0 0
371 1 6.140247089751409 16.34929488548288 6.101066193956212 0 0 0
375 2 4.044393778125266 16.36734336803668 6.108923655230253 0 0 0
326 2 6.398023885404333 14.369241098144087 2.119768631780784 0 0 0
330 1 4.188256256894148 14.384158129826881 6.0497067331696535 0 0 0
372 1 6.1451488141179595 18.350453066308425 4.058939685724101 0 0 0
334 2 6.085704107490464 14.345884946781469 6.185067111347869 0 0 0
376 2 4.105205715598041 18.372682982694233 4.212640799678017 0 0 0
332 1 6.034227947748482 14.24581081237569 4.163813567744382 0 0 0
373 2 6.022351934163247 16.37479269675507 4.020488493315238 0 0 0
336 2 4.130078578090598 14.07946902781973 4.060900417697158 0 0 0
362 1 4.0686081941816825 18.513792079490052 1.8791555850131485 0 0 0
363 1 6.052538258341854 16.25823962392312 2.0098093510816493 0 0 0
15 2 20.352584758599082 0.0539450469651494 6.183342054956238 -1 0 0
136 2 20.341055445333996 14.295825496252624 4.104000368276408 -1 0 0
175 2 0.07511309448579695 16.208861969122825 6.201640695916462 0 0 0
165 2 2.134657437483876 16.306219066317745 20.37556167164113 0 0 -1
328 2 3.972301976045013 14.318414728621057 20.383263762691104 0 0 -1
9 1 20.40731921830969 0.06153999970305544 4.033347852713427 -1 0 0
130 1 20.15049884206489 14.184380492278427 6.11006447031381 -1 0 0
324 1 6.015729859202074 14.312633970847962 0.010430240391105627 0 0 0
162 1 0.06792233779860979 18.59441381253564 2.115353157773562 0 0 0
565 2 10.262615808721424 16.352758610017744 20.365287826812033 0 0 -1
561 1 8.234555522695542 16.260525912672065 0.0710393443721209 0 0 0
601 1 12.213102542962593 0.19806952879664458 20.28233390561114 0 0 -1
615 2 12.095737264971419 0.03571466897013694 6.287660464825704 0 0 0
413 2 10.125713243605363 0.0015361565836364832 3.9298699448252696 0 0 0
411 1 10.16137833397018 20.35150210371562 6.166546666324324 0 -1 0
409 1 8.109537138422525 0.14569408905830272 4.006978713385238 0 0 0
761 1 12.379430018995535 16.2217563563498 0.05595359179240175 0 0 0
524 1 10.184497897473424 14.439688285857166 20.395743001313893 0 0 -1
728 2 12.208342142621246 14.240945733320277 20.41272083494104 0 0 -1
415 2 8.22240560763788 0.062234729811456266 6.336022313123827 0 0 0
407 2 8.138123336830473 20.399118634627126 2.0197294510769614 0 -1 0
522 1 8.359274108652045 14.231697668260477 1.9934560592846535 0 0 0
526 2 10.249606286983942 14.425076943843095 2.0161936620057275 0 0 0
530 1 8.402963949170696 14.235436886136156 6.059554357713451 0 0 0
532 1 10.112289319776266 14.294628786055076 4.070301369091964 0 0 0
534 2 10.304507503031001 14.339727025922246 5.993594672162824 0 0 0
536 2 8.177439471172633 14.287163253550542 4.149139400799901 0 0 0
562 1 8.11469834747907 18.177445867193555 1.9932464257084126 0 0 0
563 1 10.291722323620572 16.207839774235055 2.100135850947738 0 0 0
566 2 10.163431275815219 18.29023543871292 2.014859179517217 0 0 0
567 2 8.157678032703046 16.285934252757894 2.012784783454849 0 0 0
569 1 8.139771853037708 16.50931196090686 4.180674545094539 0 0 0
570 1 8.320750356516271 18.399838514716738 6.0663216808668725 0 0 0
571 1 10.239028701122121 16.378970848481604 6.120588205243843 0 0 0
572 1 10.266210558471741 18.456683959421053 4.149644016381868 0 0 0
573 2 10.303937830056363 16.224834939829865 4.196303366255458 0 0 0
574 2 10.24409842325771 18.430631302297897 6.021802059128603 0 0 0
575 2 8.278853247213016 16.32047304373614 6.08798662575419 0 0 0
576 2 8.150957192253497 18.471359434258172 4.03746050590374 0 0 0
722 1 12.328507369929282 14.31328820261043 2.091931545785338 0 0 0
730 1 12.213931043838784 14.295135846807394 5.967126261629371 0 0 0
736 2 12.34168246665952 14.315204626979108 4.025424013088361 0 0 0
762 1 12.220124881541873 18.401130005423568 2.1631760476803104 0 0 0
767 2 12.32187598372229 16.27402960030899 2.026080540928221 0 0 0
769 1 12.256501835935737 16.30724583990622 4.0390284565229635 0 0 0
770 1 12.249124773198114 18.296512411917792 6.021835330356999 0 0 0
775 2 12.328030207384058 16.411889503161856 6.056255671026384 0 0 0
776 2 12.142096271162805 18.526353627991828 4.048522567127239 0 0 0
168 2 0.0498154388711642 18.33770002877429 20.328857760848987 0 0 -1
764 1 14.271789389809387 18.449702345477696 0.11252153454731229 0 0 0
176 2 0.0807490460943896 18.241000838648453 4.031394370469075 0 0 0
122 1 0.1456743626010919 14.382935478854305 2.1242225631583067 0 0 0
603 1 14.091755246827862 0.008422611074287545 2.029367561067537 0 0 0
813 2 18.43542847258957 0.027637571227026914 3.9935895687923564 0 0 0
928 2 16.355208412138424 14.225968577046956 0.06270781420161642 0 0 0
968 2 16.297062054410127 18.450314084905013 20.350092983104926 0 0 -1
964 1 18.527992673289585 18.261896326336363 20.28733457992385 0 0 -1
169 1 0.2113319055061993 16.314689043288812 4.080818914674028 0 0 0
167 2 0.2125692269354097 16.294857218712202 1.9834088255281621 0 0 0
170 1 0.21358126056580318 18.228016779127174 6.022725471931603 0 0 0
161 1 0.2043239909429495 16.266798736246457 20.36838567608737 0 0 -1
805 2 18.332396107882396 20.257602476235693 20.32752342239326 0 -1 -1
962 1 16.419584295458677 18.333111883913478 1.990333765317535 0 0 0
963 1 18.536652253220158 16.519828887564245 2.1705681485254247 0 0 0
966 2 18.580792122827194 18.386720149262906 2.008829761655566 0 0 0
967 2 16.522993096249536 16.32378788580463 2.0842931897822594 0 0 0
969 1 16.264049243624072 16.42909727162541 3.9399100522240924 0 0 0
970 1 16.316264317244762 18.498916446988165 6.306016861448653 0 0 0
971 1 18.363743452044872 16.25780160675792 6.070297962193244 0 0 0
972 1 18.520177339055696 18.346995345188873 4.131029197713346 0 0 0
973 2 18.466907246514296 16.37548733982086 4.014717869294606 0 0 0
974 2 18.4645138048772 18.332232688752352 6.076480418654031 0 0 0
975 2 16.38582813989019 16.30471507070014 6.203458707930311 0 0 0
976 2 16.316285331335425 18.413226983912175 4.198746490107991 0 0 0
726 2 14.250313740920175 14.549338975578884 2.0732950444298828 0 0 0
732 1 14.154631134081908 14.177047467497589 4.000011454147568 0 0 0
734 2 14.228273948581029 14.240291676260332 6.079875810339014 0 0 0
763 1 14.489748303881955 16.45909156120214 1.9321141223159208 0 0 0
766 2 14.310568042281083 18.343968186087995 2.1038005819644976 0 0 0
771 1 14.418780457146095 16.217093510607786 5.986305116954899 0 0 0
772 1 14.463079423791363 18.499717258366324 4.134326498177886 0 0 0
773 2 14.41291666612804 16.409675938367332 4.124133829056181 0 0 0
774 2 14.238881073492687 18.42021176232455 6.129180708285011 0 0 0
922 1 16.2926583440466 14.246965726376226 2.0562924260151085 0 0 0
926 2 18.44384276355158 14.259337532179622 2.097817324135399 0 0 0
930 1 16.155001192570165 14.307306891337966 6.100754568825944 0 0 0
932 1 18.312910421268327 14.333008802945326 3.9160545724620035 0 0 0
934 2 18.384768872639047 14.322341577730661 6.0571744501183975 0 0 0
936 2 16.339420585368487 14.196678494835377 4.05656997334106 0 0 0
225 1 4.4523426422093735 0.3450762703535198 12.660405617186308 0 0 0
262 2 6.1388192432539395 6.065013069339381 10.239465287933974 0 0 0
263 2 3.895778739244312 4.091061811049549 10.155939944205773 0 0 0
264 2 4.296807539121806 6.213003604537849 7.991907452359309 0 0 0
265 1 3.841163195443596 4.114446624591716 12.037917423199167 0 0 0
268 1 5.901411451517248 6.143069076709778 12.140825440247788 0 0 0
269 2 6.026401553902383 4.074086391646685 12.133979428354143 0 0 0
272 2 4.081709404529568 6.038011977545525 12.208188701824092 0 0 0
20 1 2.0119164624324397 2.139272944641635 8.329597317933512 0 0 0
22 2 1.997597987366867 2.129849634024396 10.281011208247508 0 0 0
28 1 1.967519757718548 2.1295167274379043 12.433831258014003 0 0 0
59 1 1.8505552072338753 4.268761011152763 10.202311787197303 0 0 0
60 1 2.030903965723865 6.085490991909162 8.024234305295577 0 0 0
24 2 20.4139008423399 2.0558357974204107 8.306181173984676 -1 0 0
29 2 2.087037629627065 0.12920705086569753 12.241825767248939 0 0 0
219 1 6.121935355055715 0.016819669903400822 9.99818604524763 0 0 0
229 2 6.111827575341901 0.024817130822283463 12.287877403654937 0 0 0
21 2 2.1034024551210146 20.38221388995618 8.459114831051473 0 -1 0
61 2 1.9049698555671477 4.11179559182319 8.170428132505156 0 0 0
62 2 2.246088642585617 6.0033644127543555 10.04986314150945 0 0 0
19 1 1.7670447327645669 0.43769843864164204 10.27860366854938 0 0 0
68 1 1.8745221961118885 6.090935035996873 12.09753591049447 0 0 0
69 2 1.8549768059807517 4.1452803439919155 12.193713464743631 0 0 0
218 1 4.003702895014211 1.9342638712386713 10.049779534037267 0 0 0
220 1 6.131916994657831 2.1891505873495736 8.173621444117302 0 0 0
222 2 6.077415623246533 2.0912655391705477 10.206098214719523 0 0 0
224 2 4.246274302752395 2.1737704836987293 8.203130220237906 0 0 0
228 1 6.117487653978464 2.246211738711426 12.121683651667649 0 0 0
232 2 4.185843465075288 2.157753516623189 12.113820446929278 0 0 0
257 1 4.024762902156863 4.215069581278029 8.281602246689667 0 0 0
258 1 4.126181155572675 6.075281456937518 10.29026876293971 0 0 0
259 1 6.076051242286994 4.072493749369261 10.094650440035796 0 0 0
260 1 6.130668229945761 6.266959026915622 8.114930782816403 0 0 0
261 2 6.263963189380683 4.056050862265798 8.15286295285875 0 0 0
665 1 12.265877030583097 4.190689491883016 12.128901840386805 0 0 0
672 2 12.19995602998974 6.171962120251848 12.158248972865037 0 0 0
418 1 8.07725673295196 1.956249218572341 10.282725224068887 0 0 0
420 1 10.200372992569227 2.2187843391088347 8.179213473353462 0 0 0
422 2 10.318877615889182 2.0836857344022084 10.241330470494228 0 0 0
424 2 8.161562121468576 2.043810767175753 8.23653395277979 0 0 0
428 1 10.409610978882565 2.0966685206111704 12.225264395756946 0 0 0
432 2 8.226945577525834 1.9625133418813374 12.141312229445383 0 0 0
457 1 8.234268743001278 4.145683599025601 8.261985748142928 0 0 0
458 1 8.23442162585764 6.265177614784211 10.199208058334685 0 0 0
459 1 10.10247718543911 4.311741794385263 10.294589320982688 0 0 0
460 1 10.067765594926527 6.16277527359808 8.072516920856714 0 0 0
461 2 10.090262300672409 4.287241745042984 8.266518373902501 0 0 0
462 2 10.067361963389532 6.449506522173487 10.307806234094576 0 0 0
463 2 8.160011871748825 4.2349602964849336 10.29966833696499 0 0 0
464 2 8.039939492595359 6.099454922807041 8.148953248202197 0 0 0
465 1 8.205549622338154 4.002564806588686 12.270197915724061 0 0 0
468 1 10.282362046489125 6.2782330513827205 12.331142130925354 0 0 0
469 2 10.219308162361102 4.119887975973183 12.183492560875198 0 0 0
472 2 8.160480787160866 6.092479273025244 12.272969358934608 0 0 0
618 1 12.177699711398178 2.3113395124780616 10.182384227070335 0 0 0
624 2 12.325610975310534 2.127472246291943 8.321084853241402 0 0 0
632 2 12.253168833037464 2.204065125510123 12.380076067671753 0 0 0
657 1 12.243355047753994 4.227196312958546 8.173523399679523 0 0 0
658 1 11.976632042401146 6.188826825496548 10.169173376691917 0 0 0
663 2 12.332762810679037 4.213383063513329 10.375548116747838 0 0 0
664 2 12.1638728194685 6.076873000320084 8.2436158748071 0 0 0
423 2 7.954404841180123 20.32163797434403 10.05985344952939 0 -1 0
429 2 10.23017074346147 20.295233516026403 12.250900240759092 0 -1 0
617 1 12.13410703938427 0.10102785005935008 8.298107627980748 0 0 0
625 1 12.221362918343047 0.13508367704861676 12.204248028547225 0 0 0
825 1 16.11294068457696 20.323324585203665 12.31802198483085 0 -1 0
817 1 16.317714105146685 20.266878876177234 8.224792801518563 0 -1 0
823 2 16.43146717275409 20.387923501476312 10.189132213919315 0 -1 0
861 2 18.23294095368322 4.029537268506762 8.213708391261083 0 0 0
862 2 18.148300450026063 6.158488228430517 10.222913551226466 0 0 0
863 2 16.353521971900573 4.091192138254242 10.218182619868633 0 0 0
864 2 16.23415167988038 6.179509197125826 8.173086376883317 0 0 0
865 1 16.364523935067464 4.029088828012376 12.40332302338963 0 0 0
868 1 18.36654441118823 6.3124913891323775 12.186022586293314 0 0 0
869 2 18.294829643218726 4.100671188343447 12.207375233351788 0 0 0
872 2 16.266679255005275 6.185782382559596 12.479886529150335 0 0 0
620 1 14.337581042516156 1.996904067376407 8.07485977558079 0 0 0
622 2 14.33907926916704 2.189572252152293 10.283714187695185 0 0 0
628 1 14.191568167230107 2.0394042183026695 12.324945346373557 0 0 0
659 1 14.208364243523791 4.070426802255592 10.280442230768193 0 0 0
660 1 14.335454297489322 6.158326905262868 8.235558831417087 0 0 0
661 2 14.119011839031346 4.006889694854124 8.248688094159117 0 0 0
662 2 14.248955282976125 6.3193766445444775 10.19283774564863 0 0 0
668 1 14.486553814668548 6.216856105455154 12.31111395031017 0 0 0
669 2 14.342725286993462 4.127734858872263 12.327176088905873 0 0 0
818 1 16.28769816654484 2.01940338099685 10.2388910069817 0 0 0
820 1 18.14909704657095 2.0038198643770073 8.126673312716578 0 0 0
822 2 18.3086837423335 2.004757565217049 10.253162576826629 0 0 0
824 2 16.207586222956195 1.9902663093335673 8.134389944027992 0 0 0
828 1 18.416922495652813 2.0539965745734334 12.304270572271822 0 0 0
832 2 16.318282432999926 2.070082243190779 12.211043144658687 0 0 0
857 1 16.158704446065553 4.145200175499522 8.207292426726577 0 0 0
858 1 16.385638421544275 6.195223092285393 10.309318093347986 0 0 0
859 1 18.27009476556172 3.9668943322161443 10.059007014544495 0 0 0
25 1 0.04099632884746309 20.40903727101509 12.24470617628456 0 -1 0
860 1 18.190380456231146 6.280606250979772 8.016421242242785 0 0 0